
         
 *******************************************************************************
 *                                                                             *
 *                               CRYSTAL23                                     *
 *                      public : 1.0.1 - October 2022                          *
 *                       HTTP://WWW.CRYSTAL.UNITO.IT                           *
 *                                                                             *
 *                              MAIN AUTHORS                                   *
 *                                                                             *
 *  R. DOVESI(1,11), V.R. SAUNDERS(2), C. ROETTI(1,11), R. ORLANDO(1,11),      *
 *  C.M. ZICOVICH-WILSON(1,3), F. PASCALE(4), B. CIVALLERI(1,11),              *
 *  K. DOLL(5), N.M. HARRISON(6), I.J. BUSH(7), Ph. D'ARCO(8),                 *
 *  M. LLUNELL(9), M. CAUSA'(10), Y. NOEL(8), L. MASCHIO(1,11), A. ERBA(1,11)  *
 *  M. RE'RAT(14), S. CASASSA(1,11), B.G. SEARLE(2), J.K. DESMARAIS(1)         *
 *                                                                             *
 *        CONTRIBUTIONS TO THE CODE HAVE ALSO BEEN GIVEN BY                    *
 *                                                                             *
 *  M. FERRABONE(1,11), M. DE LA PIERRE(1,11), M. FERRERO(1,11),               *
 *  J. BAIMA(1,11), E. ALBANESE(1,11), M.F. PEINTINGER(12), R. BAST(13),       *
 *  B. KIRTMAN(15), V. LACIVITA(1,11), R. DEMICHELIS(1,16)                     *
 *  G. BRANDEBURG(17), S. SALUSTRO(1,11), G. SANSONE(1,11)                     *
 *  M.T. RUGGIERO(18), L.E. DAGA(1), L. DONA'(1), A. COSSARD(1)                *
 *                                                                             *
 * (1) THEORETICAL CHEMISTRY GROUP - UNIVERSITA' DI TORINO - TORINO (ITALY)    *
 * (2) SCIENTIFIC COMPUTING DEPARTMENT - STFC DARESBURY (UK)                   *
 * (3) UNIVERSIDAD AUTONOMA DEL ESTADO DE MORELOS - CUERNAVACA (MEXICO)        *
 * (4) UNIVERSITE' DE LORRAINE - NANCY (FRANCE)                                *
 * (5) UNIVERSITAET STUTTGART- STUTTGART (GERMANY)                             *
 * (6) IMPERIAL COLLEGE - LONDON (UK)                                          *
 * (7) SCIENTIFIC COMPUTING DEPARTMENT - STFC RAL (UK)                         *
 * (8) UPMC - SORBONNE UNIVERSITES - PARIS (FRANCE)                            *
 * (9) UNIVERSIDAD DE BARCELONA - BARCELONA (SPAIN)                            *
 *(10) UNIVERSITA' DI NAPOLI "FEDERICO II" - NAPOLI (ITALY)                    *
 *(11) NIS - NANOSTRUCTURED INTERFACES AND SURFACES - TORINO (ITALY)           *
 *(12) MPI FUER CHEMISCHE ENERGIEKONVERSION - MUELHEIM AN DER RUHR (GERMANY)   *
 *(13) UNIVERSITY OF TROMSO - TROMSO (NORWAY)                                  *
 *(14) UNIVERSITE' DE PAU ET DES PAYS DE L'ADOUR - PAU (FRANCE)                *
 *(15) UNIVERSITY OF CALIFORNIA SANTA BARBARA - SANTA BARBARA (USA)            *
 *(16) CURTIN UNIVERSITY - PERTH (AUSTRALIA)                                   *
 *(17) UNIVERSITY COLLEGE LONDON - LONDON (UK)                                 *
 *(18) UNIVERSITY OF VERMONT - BURLINGTON (USA)                                *
 *                                                                             *
 *******************************************************************************
 EEEEEEEEEE STARTING  DATE 21 01 2023 TIME 14:57:36.7
 INFORMATION **** SET_MPP **** PCRYSTAL CALCULATION

 *******************************************************************************
 CO2 mp-11725                                                                    
 CRYSTAL - PROPERTIES - TYPE OF CALCULATION :  RESTRICTED CLOSED SHELL
 *******************************************************************************
 KOHN-SHAM HAMILTONIAN

 (EXCHANGE)[CORRELATION] FUNCTIONAL:(BECKE 88)[LEE-YANG-PARR]

 NON-LOCAL WEIGHTING FACTOR (EXCHANGE) =           0.9000
 NON-LOCAL WEIGHTING FACTOR [CORRELATION] =        0.8100

 HYBRID EXCHANGE - PERCENTAGE OF FOCK EXCHANGE    20.0000

 DIRECT LATTICE VECTOR COMPONENTS (ANGSTROM)
         4.81000    0.00000    0.00000
         0.00000    4.81000    0.00000
         0.00000    0.00000    3.73000

 LATTICE PARAMETERS  (ANGSTROM AND DEGREES) - PRIMITIVE CELL
       A          B          C         ALPHA      BETA     GAMMA        VOLUME
    4.81000    4.81000    3.73000     90.0000   90.0000   90.0000      86.29765
 *******************************************************************************
 N. OF ATOMS PER CELL         6 COULOMB OVERLAP TOL          (T1) 10**   -6
 NUMBER OF SHELLS            36 COULOMB PENETRATION TOL      (T2) 10**   -6
 NUMBER OF AO                84 EXCHANGE OVERLAP TOL         (T3) 10**   -6
 N. OF ELECTRONS PER CELL    44 EXCHANGE PSEUDO OVP (F(G))   (T4) 10**   -6
 CORE ELECTRONS PER CELL     12 EXCHANGE PSEUDO OVP (P(G))   (T5) 10**  -12
 N. OF SYMMETRY OPERATORS    16 POLE ORDER IN MONO ZONE                   4
 *******************************************************************************
   ATOM N.AT.  SHELL    X(A)      Y(A)      Z(A)      EXAD       N.ELECT.
 *******************************************************************************
    1    6 C     6     2.405     2.405     0.000   4.286E-01       5.324
    2    6 C     6     0.000     0.000     1.865   4.286E-01       5.324
    3    8 O     6     0.825     0.825     1.865   1.790E-01       8.338
    4    8 O     6    -0.825    -0.825     1.865   1.790E-01       8.338
    5    8 O     6    -1.580     1.580     0.000   1.790E-01       8.338
    6    8 O     6     1.580    -1.580     0.000   1.790E-01       8.338
 *******************************************************************************
 DE(K)                   0.000E+00  ENERGY LEVEL SHIFTING        0.00000
 TOTAL ENERGY -3.7669569535682E+02  CONVERGENCE ON ENER       -2.256E-08
 KIN. ENERGY   3.7372349414743E+02  VIR. COEFF.           1.04664322E+00
 N. OF SCF CYCLES                7  FERMI ENERGY              -0.372E+00
 WEIGHT OF F(I) IN F(I+1)      30
 SHRINK. FACT.(MONKH.)     4  4  4  SHRINKING FACTOR(GILAT NET)        4
 NUMBER OF K POINTS IN THE IBZ  18  CELL VOLUME (A.U.)        582.365437
 *******************************************************************************

 GCALCO - MAX INDICES DIRECT LATTICE VECTOR    13    13    18
 NO.OF VECTORS CREATED 6999 STARS  524 RMAX    99.00914 BOHR
 TTTTTTTTTTTTTTTTTTTTTTTTTTTTTT gordsh1     TELAPSE        0.21 TCPU        0.16

 MATRIX SIZE: P(G)  114280, F(G)   19678, P(G) IRR    6534, F(G) IRR    2664
 MAX G-VECTOR INDEX FOR 1- AND 2-ELECTRON INTEGRALS 127


 CAPPA:IS1  4;IS2  4;IS3  4; K PTS MONK NET  18; SYMMOPS:K SPACE  16;G SPACE  16

 *******************************************************************************
 *                                                                             *
 *                              T O P O N D  2 0 2 1                           *
 *                                                                             *
 *           AN ELECTRON DENSITY TOPOLOGICAL ANALYSIS PROGRAM FOR              *
 *                 SYSTEMS PERIODIC IN N (N=0-3) DIMENSIONS                    *
 *                                                                             *
 *               USER MANUAL BY CARLO GATTI AND SILVIA CASASSA                 *
 *                                                                             *
 *            CNR-ISTM, ISTITUTO DI SCIENZE E TECNOLOGIE MOLECOLARI            *
 *                   VIA GOLGI 19  - I-20133 MILANO - ITALIA                   *
 *                     E-MAIL: c.gatti@istm.cnr.it                             *
 *                                                                             *
 *******************************************************************************

  TOPOND PARAMETER 

  LIM016 [INF24]        =       1000
  LIM015 [INF20]        =         36
  LIM035 [LIM016*INF5]  =     524000
  NTOMAX [LIM016*INF5]  =     524000
  INF79  [INF79]        =       6999
  MAXGSTAR [INF2*INF5]  =        384

 *******************************************************************************
 *******************************************************************************
 *                                                                             *
 *               TOPOND GENERALISATION TO F AND G ATOMIC ORBITALS              *
 *                                                                             *
 *                     BY ALESSANDRO COSSARD, JACQUES DESMARAIS                *
 *                            AND ALESSANDRO ERBA                              *
 *                                                                             *
 *      PLEASE CITE: A. Cossard, J. K. Desmarais, S.Casassa, C. Gatti and      *
 *            A. Erba, J. Phys. Chem. Lett., 12, 1862-1868 (2021)              *
 *                                                                             *
 *******************************************************************************

CRYSTAL INFORMATION ON THE REFERENCE SYSTEM:

 DIRECT LATTICE VECTOR COMPONENTS (BOHR)
         9.08958    0.00000    0.00000
         0.00000    9.08958    0.00000
         0.00000    0.00000    7.04868

 LATTICE PARAMETERS  (BOHR AND DEGREES) - PRIMITIVE CELL
        A           B           C        ALPHA        BETA       GAMMA       VOLUME
     9.08958     9.08958     7.04868    90.00000    90.00000    90.00000   582.36544
 *******************************************************************************
 N. OF ATOMS PER CELL        6  COULOMB OVERLAP TOL         (T1) 10** -6
 NUMBER OF SHELLS           36  COULOMB PENETRATION TOL     (T2) 10** -6
 NUMBER OF AO               84  EXCHANGE OVERLAP TOL        (T3) 10** -6
 N. OF ELECTRONS PER CELL    44 EXCHANGE PSEUDO OVP (F(G))  (T4) 10** -6
 CORE ELECTRONS PER CELL    12  EXCHANGE PSEUDO OVP (P(G))  (T5) 10**-12
 N. OF SYMMETRY OPERATORS   16  POLE ORDER IN MONO ZONE                4
 *******************************************************************************
  ATOM  SHEL    X(AU)     Y(AU)     Z(AU)
 *******************************************************************************
    6 C    6     4.545     4.545     0.000
    6 C    6     0.000     0.000     3.524
    8 O    6     1.559     1.559     3.524
    8 O    6    -1.559    -1.559     3.524
    8 O    6    -2.986     2.986     0.000
    8 O    6     2.986    -2.986     0.000
 *******************************************************************************
 DE(K)                  0.000E+00  CONVERGENCE ON EIGENVALUES   10**-20
 WEIGHT OF F(I) IN F(I+1)     30%  CONVERGENCE ON ENERGY        10**- 6
 TOTAL ENERGY     -3.76695695E+02  FERMI ENERGY              -3.716E-01
 KIN. ENERGY       3.73723494E+02  VIR. COEFF.           1.04664322E+00
 SHRINK. FACT.(MONKH.)    4  4  4  STARS FOR FOURIER EXP. OF E(K)     1
 SHRINKING FACTOR (GILAT NET)   4  NUMBER OF K POINTS IN THE IBZ     18
 CELL VOLUME (A.U.)         582.365N. OF SCF CYCLES                   7
 ENERGY LEVEL SHIFTING    0.00000
 *******************************************************************************

 NEIGHBORS OF THE NON-EQUIVALENT ATOMS

 N = NUMBER OF NEIGHBORS AT DISTANCE R
    ATOM  N     R/ANG      R/AU   NEIGHBORS (ATOM LABELS AND CELL INDICES)

   1 C    2     1.1666     2.2046   5 O    1 0 0   6 O    0 1 0
   1 C    4     2.9106     5.5002   3 O    0 0 0   3 O    0 0-1   4 O    1 1 0
                                    4 O    1 1-1
   1 C    2     3.7300     7.0487   1 C    0 0-1   1 C    0 0 1
   1 C    8     3.8790     7.3302   2 C    0 0 0   2 C    0 0-1   2 C    1 0 0
                                    2 C    0 1 0   2 C    1 0-1   2 C    0 1-1
                                    2 C    1 1 0   2 C    1 1-1
   1 C    4     3.9082     7.3854   5 O    1 0-1   5 O    1 0 1   6 O    0 1-1
                                    6 O    0 1 1
   1 C    8     4.0506     7.6545   3 O    1 0 0   3 O    0 1 0   3 O    1 0-1
                                    3 O    0 1-1   4 O    0 1 0   4 O    1 0 0
                                    4 O    0 1-1   4 O    1 0-1
   1 C    4     4.0696     7.6904   5 O    0 0 0   5 O    1 1 0   6 O    1 1 0
                                    6 O    0 0 0
   1 C    4     4.8100     9.0896   1 C   -1 0 0   1 C    1 0 0   1 C    0-1 0
                                    1 C    0 1 0
   1 C    4     4.9339     9.3236   3 O    1 1 0   3 O    1 1-1   4 O    0 0 0
                                    4 O    0 0-1
   1 C    8     5.5203    10.4319   5 O    0 0 1   5 O    0 0-1   5 O    1 1 1
                                    5 O    1 1-1   6 O    1 1 1   6 O    1 1-1
                                    6 O    0 0 1   6 O    0 0-1

   3 O    1     1.1666     2.2046   2 C    0 0 0
   3 O    1     2.3332     4.4092   4 O    0 0 0
   3 O    2     2.9106     5.5002   1 C    0 0 0   1 C    0 0 1
   3 O    8     3.1357     5.9256   5 O    0 0 0   5 O    0 0 1   5 O    1 0 0
                                    5 O    1 0 1   6 O    0 0 1   6 O    0 0 0
                                    6 O    0 1 1   6 O    0 1 0
   3 O    2     3.5649     6.7367   4 O    1 0 0   4 O    0 1 0
   3 O    2     3.7300     7.0487   3 O    0 0-1   3 O    0 0 1
   3 O    2     3.9082     7.3854   2 C    0 0-1   2 C    0 0 1
   3 O    4     4.0506     7.6545   1 C   -1 0 0   1 C    0-1 0   1 C   -1 0 1
                                    1 C    0-1 1
   3 O    2     4.0696     7.6904   2 C    1 0 0   2 C    0 1 0
   3 O    2     4.3996     8.3141   4 O    0 0 1   4 O    0 0-1

 CLUSTERS AROUND EACH OF THE NON-EQUIVALENT ATOMS

 NON-EQUIV. ATOM       1 C (N.      1 IN THE UNIT CELL), CLUSTER OF     48 ATOMS
 NEW  OLD   CELL  AT. NU.         COORD.(AU)             DISTANCE (ANG)
     1       5       1     0     0    8        6.104   2.986   0.000          1.167
     2       6       0     1     0    8        2.986   6.104   0.000          1.167
     3       3       0     0     0    8        1.559   1.559   3.524          2.911
     4       3       0     0    -1    8        1.559   1.559  -3.524          2.911
     5       4       1     1     0    8        7.531   7.531   3.524          2.911
     6       4       1     1    -1    8        7.531   7.531  -3.524          2.911
     7       1       0     0    -1    6        4.545   4.545  -7.049          3.730
     8       1       0     0     1    6        4.545   4.545   7.049          3.730
     9       2       0     0     0    6        0.000   0.000   3.524          3.879
    10       2       0     0    -1    6        0.000   0.000  -3.524          3.879
    11       2       1     0     0    6        9.090   0.000   3.524          3.879
    12       2       0     1     0    6        0.000   9.090   3.524          3.879
    13       2       1     0    -1    6        9.090   0.000  -3.524          3.879
    14       2       0     1    -1    6        0.000   9.090  -3.524          3.879
    15       2       1     1     0    6        9.090   9.090   3.524          3.879
    16       2       1     1    -1    6        9.090   9.090  -3.524          3.879
    17       5       1     0     1    8        6.104   2.986   7.049          3.908
    18       5       1     0    -1    8        6.104   2.986  -7.049          3.908
    19       6       0     1     1    8        2.986   6.104   7.049          3.908
    20       6       0     1    -1    8        2.986   6.104  -7.049          3.908
    21       3       1     0     0    8       10.648   1.559   3.524          4.051
    22       3       0     1     0    8        1.559  10.648   3.524          4.051
    23       3       1     0    -1    8       10.648   1.559  -3.524          4.051
    24       3       0     1    -1    8        1.559  10.648  -3.524          4.051
    25       4       1     0     0    8        7.531  -1.559   3.524          4.051
    26       4       0     1     0    8       -1.559   7.531   3.524          4.051
    27       4       1     0    -1    8        7.531  -1.559  -3.524          4.051
    28       4       0     1    -1    8       -1.559   7.531  -3.524          4.051
    29       5       0     0     0    8       -2.986   2.986   0.000          4.070
    30       5       1     1     0    8        6.104  12.076   0.000          4.070
    31       6       0     0     0    8        2.986  -2.986   0.000          4.070
    32       6       1     1     0    8       12.076   6.104   0.000          4.070
    33       1      -1     0     0    6       -4.545   4.545   0.000          4.810
    34       1       1     0     0    6       13.634   4.545   0.000          4.810
    35       1       0    -1     0    6        4.545  -4.545   0.000          4.810
    36       1       0     1     0    6        4.545  13.634   0.000          4.810
    37       3       1     1     0    8       10.648  10.648   3.524          4.934
    38       3       1     1    -1    8       10.648  10.648  -3.524          4.934
    39       4       0     0     0    8       -1.559  -1.559   3.524          4.934
    40       4       0     0    -1    8       -1.559  -1.559  -3.524          4.934
    41       5       0     0    -1    8       -2.986   2.986  -7.049          5.520
    42       5       0     0     1    8       -2.986   2.986   7.049          5.520
    43       5       1     1     1    8        6.104  12.076   7.049          5.520
    44       5       1     1    -1    8        6.104  12.076  -7.049          5.520
    45       6       0     0    -1    8        2.986  -2.986  -7.049          5.520
    46       6       0     0     1    8        2.986  -2.986   7.049          5.520
    47       6       1     1     1    8       12.076   6.104   7.049          5.520
    48       6       1     1    -1    8       12.076   6.104  -7.049          5.520

 NON-EQUIV. ATOM       2 O (N.      3 IN THE UNIT CELL), CLUSTER OF     26 ATOMS
 NEW  OLD   CELL  AT. NU.         COORD.(AU)             DISTANCE (ANG)
     1       2       0     0     0    6        0.000   0.000   3.524          1.167
     2       4       0     0     0    8       -1.559  -1.559   3.524          2.333
     3       1       0     0     0    6        4.545   4.545   0.000          2.911
     4       1       0     0     1    6        4.545   4.545   7.049          2.911
     5       5       0     0     0    8       -2.986   2.986   0.000          3.136
     6       5       0     0     1    8       -2.986   2.986   7.049          3.136
     7       5       1     0     0    8        6.104   2.986   0.000          3.136
     8       5       1     0     1    8        6.104   2.986   7.049          3.136
     9       6       0     0     0    8        2.986  -2.986   0.000          3.136
    10       6       0     0     1    8        2.986  -2.986   7.049          3.136
    11       6       0     1     0    8        2.986   6.104   0.000          3.136
    12       6       0     1     1    8        2.986   6.104   7.049          3.136
    13       4       1     0     0    8        7.531  -1.559   3.524          3.565
    14       4       0     1     0    8       -1.559   7.531   3.524          3.565
    15       3       0     0    -1    8        1.559   1.559  -3.524          3.730
    16       3       0     0     1    8        1.559   1.559  10.573          3.730
    17       2       0     0    -1    6        0.000   0.000  -3.524          3.908
    18       2       0     0     1    6        0.000   0.000  10.573          3.908
    19       1      -1     0     0    6       -4.545   4.545   0.000          4.051
    20       1       0    -1     0    6        4.545  -4.545   0.000          4.051
    21       1      -1     0     1    6       -4.545   4.545   7.049          4.051
    22       1       0    -1     1    6        4.545  -4.545   7.049          4.051
    23       2       1     0     0    6        9.090   0.000   3.524          4.070
    24       2       0     1     0    6        0.000   9.090   3.524          4.070
    25       4       0     0    -1    8       -1.559  -1.559  -3.524          4.400
    26       4       0     0     1    8       -1.559  -1.559  10.573          4.400

 *******************************************************************************
         TOPOLOGICAL ANALYSIS OF RHO : UNIQUE ATOM PAIRS CONSIDERED
 *******************************************************************************

 NON EQUIV. ATOM       1  C 

  NEW   SYM  OLD   CELL           COORD. (AU)         DISTANCE (ANG)
      1    O        5        1     0     0      6.104   2.986   0.000         1.167
      3    O        3        0     0     0      1.559   1.559   3.524         2.911
      7    C        1        0     0    -1      4.545   4.545  -7.049         3.730
      9    C        2        0     0     0      0.000   0.000   3.524         3.879
     17    O        5        1     0     1      6.104   2.986   7.049         3.908
     21    O        3        1     0     0     10.648   1.559   3.524         4.051
     29    O        5        0     0     0     -2.986   2.986   0.000         4.070
     33    C        1       -1     0     0     -4.545   4.545   0.000         4.810
     37    O        3        1     1     0     10.648  10.648   3.524         4.934
     41    O        5        0     0    -1     -2.986   2.986  -7.049         5.520

 NON EQUIV. ATOM       2  O 

  NEW   SYM  OLD   CELL           COORD. (AU)         DISTANCE (ANG)
      2    O        4        0     0     0     -1.559  -1.559   3.524         2.333
      5    O        5        0     0     0     -2.986   2.986   0.000         3.136
     13    O        4        1     0     0      7.531  -1.559   3.524         3.565
     15    O        3        0     0    -1      1.559   1.559  -3.524         3.730
     25    O        4        0     0    -1     -1.559  -1.559  -3.524         4.400


 ************* T O P O L O G I C A L  A N A L I S Y S  O F  R H O *************


 COMPUTATIONAL CONDITIONS :
                           IAUTO                                     :    -1
                           ALGORITHM FOR CP SEARCH                   :    EF
                           DETERMINATION OF BOND PATH ATTRACTORS     :     T
                           MAX.NUM. OF N.R. OR EIG. FOL. STEPS       :    20
                           NEIGHBORS OF EACH NON-EQUIVALENT ATOM     :    10
                           THRESHOLD ON INTERNUC. DISTANCES (ANG)    :   5.0
                           PRINT N.RAPH OR E.FOL. OR PAR. EQ. SEARCH :     F
                           TOTAL NUMBER OF PAIRS CONSIDERED          :    15


 ********************
 SEARCH OF (3,-3) CPS
 ********************

 CP N.      1
 *********

 CP TYPE                        :  (3,-3)
 COORD(AU)  (X  Y  Z)           :  4.5448E+00  4.5448E+00 -1.0470E-22
 COORD FRACT. CONV. CELL        :  5.0000E-01  5.0000E-01 -1.4854E-23
 PROPERTIES (RHO,GRHO,LAP)      :  1.1214E+02  1.3940E-13 -2.5821E+05
 KINETIC ENERGY DENSITIES (G,K) :  5.9831E+00  6.4558E+04
 VIRIAL DENSITY                 : -6.4564E+04
 ELF(PAA)                       :  1.0000E+00

 SPECTRAL DECOMP. OF THE HESSIAN OF RHO

 EIGENVALUES (L1 L2 L3)         : -8.6070E+04 -8.6070E+04 -8.6068E+04
 EIGENVECTORS                   :  0.0000E+00 -7.0711E-01  7.0711E-01
                                   1.8484E-19 -7.0711E-01 -7.0711E-01
                                   1.0000E+00  1.3070E-19  1.3070E-19


 CLUSTER OF ATOMS AROUND THE CP 
 NEW  OLD   CELL  AT. NU.         COORD.(AU)             DISTANCE (ANG)
     1       1       0     0     0    6        4.545   4.545   0.000          0.000
     2       6       0     1     0    8        2.986   6.104   0.000          1.167
     3       5       1     0     0    8        6.104   2.986   0.000          1.167
     4       4       1     1    -1    8        7.531   7.531  -3.524          2.911
     5       4       1     1     0    8        7.531   7.531   3.524          2.911
     6       3       0     0    -1    8        1.559   1.559  -3.524          2.911
     7       3       0     0     0    8        1.559   1.559   3.524          2.911
     8       1       0     0     1    6        4.545   4.545   7.049          3.730
     9       1       0     0    -1    6        4.545   4.545  -7.049          3.730
    10       2       1     1    -1    6        9.090   9.090  -3.524          3.879

 CP N.      2
 *********

 CP TYPE                        :  (3,-3)
 COORD(AU)  (X  Y  Z)           :  1.5589E+00  1.5589E+00  3.5243E+00
 COORD FRACT. CONV. CELL        :  1.7150E-01  1.7150E-01  5.0000E-01
 PROPERTIES (RHO,GRHO,LAP)      :  2.7904E+02  5.0923E-11 -1.1637E+06
 KINETIC ENERGY DENSITIES (G,K) :  5.0339E+01  2.9097E+05
 VIRIAL DENSITY                 : -2.9102E+05
 ELF(PAA)                       :  1.0000E+00

 SPECTRAL DECOMP. OF THE HESSIAN OF RHO

 EIGENVALUES (L1 L2 L3)         : -3.8790E+05 -3.8789E+05 -3.8789E+05
 EIGENVECTORS                   : -7.0711E-01  0.0000E+00  7.0711E-01
                                  -7.0711E-01 -5.9806E-19 -7.0711E-01
                                  -4.2289E-19  1.0000E+00 -4.2289E-19


 CLUSTER OF ATOMS AROUND THE CP 
 NEW  OLD   CELL  AT. NU.         COORD.(AU)             DISTANCE (ANG)
     1       3       0     0     0    8        1.559   1.559   3.524          0.000
     2       2       0     0     0    6        0.000   0.000   3.524          1.167
     3       4       0     0     0    8       -1.559  -1.559   3.524          2.333
     4       1       0     0     1    6        4.545   4.545   7.049          2.911
     5       1       0     0     0    6        4.545   4.545   0.000          2.911
     6       6       0     0     1    8        2.986  -2.986   7.049          3.136
     7       6       0     0     0    8        2.986  -2.986   0.000          3.136
     8       5       0     0     1    8       -2.986   2.986   7.049          3.136
     9       5       0     0     0    8       -2.986   2.986   0.000          3.136
    10       5       1     0     1    8        6.104   2.986   7.049          3.136


 ********************
 SEARCH OF (3,-1) CPS
 ********************


 *********** CP SEARCH AMONG ATOM PAIRS WITH NON-EQUIV. ATOM     1 C  ***********


 CP N.      3
 *********

 CP TYPE                        :  (3,-1)
 COORD(AU)  (X  Y  Z)           :  3.0569E+00  3.0569E+00  1.7181E+00
 COORD FRACT. CONV. CELL        :  3.3631E-01  3.3631E-01  2.4374E-01
 PROPERTIES (RHO,GRHO,LAP)      :  6.9022E-03  9.2711E-18  3.5174E-02
 KINETIC ENERGY DENSITIES (G,K) :  6.7696E-03 -2.0239E-03
 VIRIAL DENSITY                 : -4.7457E-03
 ELF(PAA)                       :  1.1137E-02

 SPECTRAL DECOMP. OF THE HESSIAN OF RHO

 EIGENVALUES (L1 L2 L3)         : -6.7097E-03 -9.5395E-04  4.2838E-02
 EIGENVECTORS                   :  4.4807E-01  7.0711E-01  5.4703E-01
                                   4.4807E-01 -7.0711E-01  5.4703E-01
                                   7.7361E-01 -3.4131E-12 -6.3366E-01

 ELLIPTICITY                    :  6.0336E+00

 CLUSTER OF ATOMS AROUND THE CP 
 NEW  OLD   CELL  AT. NU.         COORD.(AU)             DISTANCE (ANG)
     1       1       0     0     0    6        4.545   4.545   0.000          1.438
     2       3       0     0     0    8        1.559   1.559   3.524          1.473
     3       5       1     0     0    8        6.104   2.986   0.000          1.851
     4       6       0     1     0    8        2.986   6.104   0.000          1.851
     5       2       0     0     0    6        0.000   0.000   3.524          2.479
     6       3       0     0    -1    8        1.559   1.559  -3.524          2.992
     7       1       0     0     1    6        4.545   4.545   7.049          3.033
     8       5       1     0     1    8        6.104   2.986   7.049          3.249
     9       6       0     1     1    8        2.986   6.104   7.049          3.249
    10       6       0     0     0    8        2.986  -2.986   0.000          3.325

 ******************************
 SEARCH OF BOND PATH ATTRACTORS
 ******************************

 ATTRACTOR CP TYPE              :  (3,-3)
 COORD(AU)  (X  Y  Z)           :  4.5448E+00  4.5448E+00  9.8104E-21
 COORD FRACT. CONV. CELL        :  5.0000E-01  5.0000E-01  1.3918E-21
 PROPERTIES (RHO,GRHO,LAP)      :  1.1214E+02  1.3941E-13 -2.5821E+05
 TRAJECTORY LENGTH(ANG)         :  1.4375E+00
 INTEGRATION STEPS              :      58

 CLUSTER OF ATOMS AROUND THE TERMINUS OF THE PATH 
 NEW  OLD   CELL  AT. NU.         COORD.(AU)             DISTANCE (ANG)
     1       1       0     0     0    6        4.545   4.545   0.000          0.000
     2       6       0     1     0    8        2.986   6.104   0.000          1.167
     3       5       1     0     0    8        6.104   2.986   0.000          1.167
     4       4       1     1    -1    8        7.531   7.531  -3.524          2.911


 ATTRACTOR CP TYPE              :  (3,-3)
 COORD(AU)  (X  Y  Z)           :  1.5589E+00  1.5589E+00  3.5243E+00
 COORD FRACT. CONV. CELL        :  1.7150E-01  1.7150E-01  5.0000E-01
 PROPERTIES (RHO,GRHO,LAP)      :  2.7904E+02  5.0923E-11 -1.1637E+06
 TRAJECTORY LENGTH(ANG)         :  1.4733E+00
 INTEGRATION STEPS              :      65

 CLUSTER OF ATOMS AROUND THE TERMINUS OF THE PATH 
 NEW  OLD   CELL  AT. NU.         COORD.(AU)             DISTANCE (ANG)
     1       3       0     0     0    8        1.559   1.559   3.524          0.000
     2       2       0     0     0    6        0.000   0.000   3.524          1.167
     3       4       0     0     0    8       -1.559  -1.559   3.524          2.333
     4       1       0     0     1    6        4.545   4.545   7.049          2.911


 BPL (ANG) ; RAB ; (BPL/RAB)    :  2.9108E+00  2.9106E+00  1.0001E+00

 CP N.      4
 *********

 CP TYPE                        :  (3,-1)
 COORD(AU)  (X  Y  Z)           :  5.0886E+00  4.0010E+00  2.7413E-20
 COORD FRACT. CONV. CELL        : -4.4017E-01  4.4017E-01  3.8891E-21
 PROPERTIES (RHO,GRHO,LAP)      :  4.3587E-01  9.0416E-15 -7.8624E-02
 KINETIC ENERGY DENSITIES (G,K) :  7.7086E-01  7.9051E-01
 VIRIAL DENSITY                 : -1.5614E+00
 ELF(PAA)                       :  4.6553E-01

 SPECTRAL DECOMP. OF THE HESSIAN OF RHO

 EIGENVALUES (L1 L2 L3)         : -1.0880E+00 -1.0861E+00  2.0954E+00
 EIGENVECTORS                   :  0.0000E+00 -7.0711E-01 -7.0711E-01
                                  -5.6524E-20 -7.0711E-01  7.0711E-01
                                   1.0000E+00 -3.9969E-20  3.9969E-20

 ELLIPTICITY                    :  1.7439E-03

 CLUSTER OF ATOMS AROUND THE CP 
 NEW  OLD   CELL  AT. NU.         COORD.(AU)             DISTANCE (ANG)
     1       1       0     0     0    6        4.545   4.545   0.000          0.407
     2       5       1     0     0    8        6.104   2.986   0.000          0.760
     3       6       0     1     0    8        2.986   6.104   0.000          1.574
     4       3       0     0    -1    8        1.559   1.559  -3.524          2.939
     5       3       0     0     0    8        1.559   1.559   3.524          2.939
     6       4       1     1    -1    8        7.531   7.531  -3.524          2.939
     7       4       1     1     0    8        7.531   7.531   3.524          2.939
     8       2       1     0    -1    6        9.090   0.000  -3.524          3.528
     9       2       1     0     0    6        9.090   0.000   3.524          3.528
    10       4       1     0    -1    8        7.531  -1.559  -3.524          3.715

 ******************************
 SEARCH OF BOND PATH ATTRACTORS
 ******************************

 ATTRACTOR CP TYPE              :  (3,-3)
 COORD(AU)  (X  Y  Z)           :  4.5448E+00  4.5448E+00 -9.9187E-23
 COORD FRACT. CONV. CELL        :  5.0000E-01  5.0000E-01 -1.4072E-23
 PROPERTIES (RHO,GRHO,LAP)      :  1.1214E+02  1.3940E-13 -2.5821E+05
 TRAJECTORY LENGTH(ANG)         :  4.0698E-01
 INTEGRATION STEPS              :      44

 CLUSTER OF ATOMS AROUND THE TERMINUS OF THE PATH 
 NEW  OLD   CELL  AT. NU.         COORD.(AU)             DISTANCE (ANG)
     1       1       0     0     0    6        4.545   4.545   0.000          0.000
     2       6       0     1     0    8        2.986   6.104   0.000          1.167
     3       5       1     0     0    8        6.104   2.986   0.000          1.167
     4       4       1     1    -1    8        7.531   7.531  -3.524          2.911


 ATTRACTOR CP TYPE              :  (3,-3)
 COORD(AU)  (X  Y  Z)           :  6.1036E+00  2.9859E+00 -2.5677E-25
 COORD FRACT. CONV. CELL        : -3.2850E-01  3.2850E-01 -3.6428E-26
 PROPERTIES (RHO,GRHO,LAP)      :  2.7904E+02  7.1010E-11 -1.1637E+06
 TRAJECTORY LENGTH(ANG)         :  7.5962E-01
 INTEGRATION STEPS              :      56

 CLUSTER OF ATOMS AROUND THE TERMINUS OF THE PATH 
 NEW  OLD   CELL  AT. NU.         COORD.(AU)             DISTANCE (ANG)
     1       5       1     0     0    8        6.104   2.986   0.000          0.000
     2       1       0     0     0    6        4.545   4.545   0.000          1.167
     3       6       0     1     0    8        2.986   6.104   0.000          2.333
     4       2       1     0    -1    6        9.090   0.000  -3.524          2.911


 BPL (ANG) ; RAB ; (BPL/RAB)    :  1.1666E+00  1.1666E+00  9.9999E-01

 CP N.      5
 *********

 CP TYPE                        :  (3,-1)
 COORD(AU)  (X  Y  Z)           :  6.0075E+00  3.0821E+00  3.5243E+00
 COORD FRACT. CONV. CELL        : -3.3908E-01  3.3908E-01  5.0000E-01
 PROPERTIES (RHO,GRHO,LAP)      :  1.2782E-03  6.6142E-19  7.5782E-03
 KINETIC ENERGY DENSITIES (G,K) :  1.2995E-03 -5.9504E-04
 VIRIAL DENSITY                 : -7.0448E-04
 ELF(PAA)                       :  1.1052E-03

 SPECTRAL DECOMP. OF THE HESSIAN OF RHO

 EIGENVALUES (L1 L2 L3)         : -6.8309E-04 -4.0320E-04  8.6645E-03
 EIGENVECTORS                   : -7.0711E-01  7.0711E-01  0.0000E+00
                                  -7.0711E-01 -7.0711E-01 -2.2202E-17
                                  -1.5699E-17 -1.5699E-17  1.0000E+00

 ELLIPTICITY                    :  6.9415E-01

 CLUSTER OF ATOMS AROUND THE CP 
 NEW  OLD   CELL  AT. NU.         COORD.(AU)             DISTANCE (ANG)
     1       5       1     0     1    8        6.104   2.986   7.049          1.866
     2       5       1     0     0    8        6.104   2.986   0.000          1.866
     3       1       0     0     1    6        4.545   4.545   7.049          2.163
     4       1       0     0     0    6        4.545   4.545   0.000          2.163
     5       2       1     0     0    6        9.090   0.000   3.524          2.307
     6       4       1     1     0    8        7.531   7.531   3.524          2.488
     7       3       0     0     0    8        1.559   1.559   3.524          2.488
     8       3       1     0     0    8       10.648   1.559   3.524          2.585
     9       4       1     0     0    8        7.531  -1.559   3.524          2.585
    10       6       0     1     1    8        2.986   6.104   7.049          2.931

 ******************************
 SEARCH OF BOND PATH ATTRACTORS
 ******************************

 ATTRACTOR CP TYPE              :  (3,-3)
 COORD(AU)  (X  Y  Z)           :  6.1036E+00  2.9859E+00  7.0487E+00
 COORD FRACT. CONV. CELL        : -3.2850E-01  3.2850E-01 -1.1102E-16
 PROPERTIES (RHO,GRHO,LAP)      :  2.7904E+02  7.0752E-11 -1.1637E+06
 TRAJECTORY LENGTH(ANG)         :  1.8692E+00
 INTEGRATION STEPS              :      80

 CLUSTER OF ATOMS AROUND THE TERMINUS OF THE PATH 
 NEW  OLD   CELL  AT. NU.         COORD.(AU)             DISTANCE (ANG)
     1       5       1     0     1    8        6.104   2.986   7.049          0.000
     2       1       0     0     1    6        4.545   4.545   7.049          1.167
     3       6       0     1     1    8        2.986   6.104   7.049          2.333
     4       2       1     0     1    6        9.090   0.000  10.573          2.911


 ATTRACTOR CP TYPE              :  (3,-3)
 COORD(AU)  (X  Y  Z)           :  6.1036E+00  2.9859E+00 -7.0665E-19
 COORD FRACT. CONV. CELL        : -3.2850E-01  3.2850E-01 -1.0025E-19
 PROPERTIES (RHO,GRHO,LAP)      :  2.7904E+02  7.0753E-11 -1.1637E+06
 TRAJECTORY LENGTH(ANG)         :  1.8692E+00
 INTEGRATION STEPS              :      76

 CLUSTER OF ATOMS AROUND THE TERMINUS OF THE PATH 
 NEW  OLD   CELL  AT. NU.         COORD.(AU)             DISTANCE (ANG)
     1       5       1     0     0    8        6.104   2.986   0.000          0.000
     2       1       0     0     0    6        4.545   4.545   0.000          1.167
     3       6       0     1     0    8        2.986   6.104   0.000          2.333
     4       2       1     0    -1    6        9.090   0.000  -3.524          2.911


 BPL (ANG) ; RAB ; (BPL/RAB)    :  3.7385E+00  3.7300E+00  1.0023E+00

 CP N.      6
 *********

 CP TYPE                        :  (3,-1)
 COORD(AU)  (X  Y  Z)           :  1.6193E-16  4.5448E+00  2.2366E-18
 COORD FRACT. CONV. CELL        :  1.7815E-17  5.0000E-01  3.1731E-19
 PROPERTIES (RHO,GRHO,LAP)      :  1.7116E-03  1.3987E-18  9.0874E-03
 KINETIC ENERGY DENSITIES (G,K) :  1.6693E-03 -6.0255E-04
 VIRIAL DENSITY                 : -1.0667E-03
 ELF(PAA)                       :  1.7716E-03

 SPECTRAL DECOMP. OF THE HESSIAN OF RHO

 EIGENVALUES (L1 L2 L3)         : -1.0998E-03 -1.0862E-03  1.1273E-02
 EIGENVECTORS                   :  4.4432E-01  0.0000E+00  8.9587E-01
                                  -8.9587E-01  1.5263E-18  4.4432E-01
                                   1.3674E-18  1.0000E+00 -6.7817E-19

 ELLIPTICITY                    :  1.2502E-02

 CLUSTER OF ATOMS AROUND THE CP 
 NEW  OLD   CELL  AT. NU.         COORD.(AU)             DISTANCE (ANG)
     1       6       0     1     0    8        2.986   6.104   0.000          1.782
     2       5       0     0     0    8       -2.986   2.986   0.000          1.782
     3       1      -1     0     0    6       -4.545   4.545   0.000          2.405
     4       1       0     0     0    6        4.545   4.545   0.000          2.405
     5       4       0     1    -1    8       -1.559   7.531  -3.524          2.580
     6       4       0     1     0    8       -1.559   7.531   3.524          2.580
     7       3       0     0    -1    8        1.559   1.559  -3.524          2.580
     8       3       0     0     0    8        1.559   1.559   3.524          2.580
     9       2       0     1    -1    6        0.000   9.090  -3.524          3.043
    10       2       0     1     0    6        0.000   9.090   3.524          3.043

 ******************************
 SEARCH OF BOND PATH ATTRACTORS
 ******************************

 ATTRACTOR CP TYPE              :  (3,-3)
 COORD(AU)  (X  Y  Z)           :  2.9859E+00  6.1036E+00 -7.4605E-25
 COORD FRACT. CONV. CELL        :  3.2850E-01 -3.2850E-01 -1.0584E-25
 PROPERTIES (RHO,GRHO,LAP)      :  2.7904E+02  7.0871E-11 -1.1637E+06
 TRAJECTORY LENGTH(ANG)         :  1.7828E+00
 INTEGRATION STEPS              :      73

 CLUSTER OF ATOMS AROUND THE TERMINUS OF THE PATH 
 NEW  OLD   CELL  AT. NU.         COORD.(AU)             DISTANCE (ANG)
     1       6       0     1     0    8        2.986   6.104   0.000          0.000
     2       1       0     0     0    6        4.545   4.545   0.000          1.167
     3       5       1     0     0    8        6.104   2.986   0.000          2.333
     4       2       0     1    -1    6        0.000   9.090  -3.524          2.911


 ATTRACTOR CP TYPE              :  (3,-3)
 COORD(AU)  (X  Y  Z)           : -2.9859E+00  2.9859E+00 -1.0488E-24
 COORD FRACT. CONV. CELL        : -3.2850E-01  3.2850E-01 -1.4879E-25
 PROPERTIES (RHO,GRHO,LAP)      :  2.7904E+02  7.0856E-11 -1.1637E+06
 TRAJECTORY LENGTH(ANG)         :  1.7828E+00
 INTEGRATION STEPS              :      77

 CLUSTER OF ATOMS AROUND THE TERMINUS OF THE PATH 
 NEW  OLD   CELL  AT. NU.         COORD.(AU)             DISTANCE (ANG)
     1       5       0     0     0    8       -2.986   2.986   0.000          0.000
     2       1      -1     0     0    6       -4.545   4.545   0.000          1.167
     3       6      -1     1     0    8       -6.104   6.104   0.000          2.333
     4       2       0     0    -1    6        0.000   0.000  -3.524          2.911


 BPL (ANG) ; RAB ; (BPL/RAB)    :  3.5657E+00  3.5649E+00  1.0002E+00


 *********** CP SEARCH AMONG ATOM PAIRS WITH NON-EQUIV. ATOM     2 O  ***********


 CP N.      7
 *********

 CP TYPE                        :  (3,+3)
 COORD(AU)  (X  Y  Z)           : -9.1199E-16 -1.0811E-15  1.9373E-18
 COORD FRACT. CONV. CELL        : -1.0033E-16 -1.1893E-16  2.7484E-19
 PROPERTIES (RHO,GRHO,LAP)      :  8.1547E-04  4.8504E-19  5.7811E-03
 KINETIC ENERGY DENSITIES (G,K) :  8.7161E-04 -5.7366E-04
 VIRIAL DENSITY                 : -2.9794E-04
 ELF(PAA)                       :  5.4947E-04

 SPECTRAL DECOMP. OF THE HESSIAN OF RHO

 EIGENVALUES (L1 L2 L3)         :  4.8459E-04  5.5512E-04  4.7414E-03
 EIGENVECTORS                   : -7.0711E-01  7.0711E-01  0.0000E+00
                                   7.0711E-01  7.0711E-01  8.4506E-16
                                  -5.9755E-16 -5.9755E-16  1.0000E+00


 CLUSTER OF ATOMS AROUND THE CP 
 NEW  OLD   CELL  AT. NU.         COORD.(AU)             DISTANCE (ANG)
     1       2       0     0    -1    6        0.000   0.000  -3.524          1.865
     2       2       0     0     0    6        0.000   0.000   3.524          1.865
     3       4       0     0    -1    8       -1.559  -1.559  -3.524          2.200
     4       4       0     0     0    8       -1.559  -1.559   3.524          2.200
     5       3       0     0    -1    8        1.559   1.559  -3.524          2.200
     6       3       0     0     0    8        1.559   1.559   3.524          2.200
     7       6       0     0     0    8        2.986  -2.986   0.000          2.235
     8       5       0     0     0    8       -2.986   2.986   0.000          2.235
     9       1      -1    -1     0    6       -4.545  -4.545   0.000          3.401
    10       1       0    -1     0    6        4.545  -4.545   0.000          3.401


 NUMBER OF ATOM PAIRS INVESTIGATED:    14
 NUMBER OF UNIQUE CRI. POINT FOUND:     7


        ********** C R I T I C A L  P O I N T S  F O U N D **********


 CP N.  X(ANG)  Y(ANG)  Z(ANG)  TYPE      RHO    LAPL    L1(V1)  L2(V2)  L3(V3) ELLIP

 ************************************************************************************
    1)  2.405   2.405  -0.000  (3,-3)  112.144-999.999-999.999-999.999-999.999
                                                         0.000  -0.707   0.707
                                                         0.000  -0.707  -0.707
                                                         1.000   0.000   0.000


    2)  0.825   0.825   1.865  (3,-3)  279.043-999.999-999.999-999.999-999.999
                                                        -0.707   0.000   0.707
                                                        -0.707  -0.000  -0.707
                                                        -0.000   1.000  -0.000


    3)  1.618   1.618   0.909  (3,-1)    0.007   0.035  -0.007  -0.001   0.043  6.034

       ( C     1       0      0      0   2.717  ANG)     0.448   0.707   0.547
       ( O     3       0      0      0   2.784  ANG)     0.448  -0.707   0.547
                                                         0.774  -0.000  -0.634


    4)  2.693   2.117   0.000  (3,-1)    0.436  -0.079  -1.088  -1.086   2.095  0.002

       ( C     1       0      0      0   0.769  ANG)     0.000  -0.707  -0.707
       ( O     5       1      0      0   1.435  ANG)    -0.000  -0.707   0.707
                                                         1.000  -0.000   0.000


    5)  3.179   1.631   1.865  (3,-1)    0.001   0.008  -0.001  -0.000   0.009  0.694

       ( O     5       1      0      1   3.532  ANG)    -0.707   0.707   0.000
       ( O     5       1      0      0   3.532  ANG)    -0.707  -0.707  -0.000
                                                        -0.000  -0.000   1.000


    6)  0.000   2.405   0.000  (3,-1)    0.002   0.009  -0.001  -0.001   0.011  0.013

       ( O     6       0      1      0   3.369  ANG)     0.444   0.000   0.896
       ( O     5       0      0      0   3.369  ANG)    -0.896   0.000   0.444
                                                         0.000   1.000  -0.000


    7) -0.000  -0.000   0.000  (3,+3)    0.001   0.006   0.000   0.001   0.005
                                                        -0.707   0.707   0.000
                                                         0.707   0.707   0.000
                                                        -0.000  -0.000   1.000


 ************************************************************************************
 TTTTTTTTTTTTTTTTTTTTTTTTTTTTTT TRHO        TELAPSE       25.97 TCPU       25.24
 TTTTTTTTTTTTTTTTTTTTTTTTTTTTTT END         TELAPSE       25.97 TCPU       25.24
 EEEEEEEEEE TERMINATION  DATE 21 01 2023 TIME 14:58:02.5
