
         
 *******************************************************************************
 *                                                                             *
 *                               CRYSTAL23                                     *
 *                      public : 1.0.1 - October 2022                          *
 *                       HTTP://WWW.CRYSTAL.UNITO.IT                           *
 *                                                                             *
 *                              MAIN AUTHORS                                   *
 *                                                                             *
 *  R. DOVESI(1,11), V.R. SAUNDERS(2), C. ROETTI(1,11), R. ORLANDO(1,11),      *
 *  C.M. ZICOVICH-WILSON(1,3), F. PASCALE(4), B. CIVALLERI(1,11),              *
 *  K. DOLL(5), N.M. HARRISON(6), I.J. BUSH(7), Ph. D'ARCO(8),                 *
 *  M. LLUNELL(9), M. CAUSA'(10), Y. NOEL(8), L. MASCHIO(1,11), A. ERBA(1,11)  *
 *  M. RE'RAT(14), S. CASASSA(1,11), B.G. SEARLE(2), J.K. DESMARAIS(1)         *
 *                                                                             *
 *        CONTRIBUTIONS TO THE CODE HAVE ALSO BEEN GIVEN BY                    *
 *                                                                             *
 *  M. FERRABONE(1,11), M. DE LA PIERRE(1,11), M. FERRERO(1,11),               *
 *  J. BAIMA(1,11), E. ALBANESE(1,11), M.F. PEINTINGER(12), R. BAST(13),       *
 *  B. KIRTMAN(15), V. LACIVITA(1,11), R. DEMICHELIS(1,16)                     *
 *  G. BRANDEBURG(17), S. SALUSTRO(1,11), G. SANSONE(1,11)                     *
 *  M.T. RUGGIERO(18), L.E. DAGA(1), L. DONA'(1), A. COSSARD(1)                *
 *                                                                             *
 * (1) THEORETICAL CHEMISTRY GROUP - UNIVERSITA' DI TORINO - TORINO (ITALY)    *
 * (2) SCIENTIFIC COMPUTING DEPARTMENT - STFC DARESBURY (UK)                   *
 * (3) UNIVERSIDAD AUTONOMA DEL ESTADO DE MORELOS - CUERNAVACA (MEXICO)        *
 * (4) UNIVERSITE' DE LORRAINE - NANCY (FRANCE)                                *
 * (5) UNIVERSITAET STUTTGART- STUTTGART (GERMANY)                             *
 * (6) IMPERIAL COLLEGE - LONDON (UK)                                          *
 * (7) SCIENTIFIC COMPUTING DEPARTMENT - STFC RAL (UK)                         *
 * (8) UPMC - SORBONNE UNIVERSITES - PARIS (FRANCE)                            *
 * (9) UNIVERSIDAD DE BARCELONA - BARCELONA (SPAIN)                            *
 *(10) UNIVERSITA' DI NAPOLI "FEDERICO II" - NAPOLI (ITALY)                    *
 *(11) NIS - NANOSTRUCTURED INTERFACES AND SURFACES - TORINO (ITALY)           *
 *(12) MPI FUER CHEMISCHE ENERGIEKONVERSION - MUELHEIM AN DER RUHR (GERMANY)   *
 *(13) UNIVERSITY OF TROMSO - TROMSO (NORWAY)                                  *
 *(14) UNIVERSITE' DE PAU ET DES PAYS DE L'ADOUR - PAU (FRANCE)                *
 *(15) UNIVERSITY OF CALIFORNIA SANTA BARBARA - SANTA BARBARA (USA)            *
 *(16) CURTIN UNIVERSITY - PERTH (AUSTRALIA)                                   *
 *(17) UNIVERSITY COLLEGE LONDON - LONDON (UK)                                 *
 *(18) UNIVERSITY OF VERMONT - BURLINGTON (USA)                                *
 *                                                                             *
 *******************************************************************************
 EEEEEEEEEE STARTING  DATE 21 01 2023 TIME 14:57:58.9
 INFORMATION **** SET_MPP **** PCRYSTAL CALCULATION

 *******************************************************************************
 CO2 mp-11725                                                                    
 CRYSTAL - PROPERTIES - TYPE OF CALCULATION :  RESTRICTED CLOSED SHELL
 *******************************************************************************
 KOHN-SHAM HAMILTONIAN

 (EXCHANGE)[CORRELATION] FUNCTIONAL:(BECKE 88)[LEE-YANG-PARR]

 NON-LOCAL WEIGHTING FACTOR (EXCHANGE) =           0.9000
 NON-LOCAL WEIGHTING FACTOR [CORRELATION] =        0.8100

 HYBRID EXCHANGE - PERCENTAGE OF FOCK EXCHANGE    20.0000

 DIRECT LATTICE VECTOR COMPONENTS (ANGSTROM)
         4.81000    0.00000    0.00000
         0.00000    4.81000    0.00000
         0.00000    0.00000    3.73000

 LATTICE PARAMETERS  (ANGSTROM AND DEGREES) - PRIMITIVE CELL
       A          B          C         ALPHA      BETA     GAMMA        VOLUME
    4.81000    4.81000    3.73000     90.0000   90.0000   90.0000      86.29765
 *******************************************************************************
 N. OF ATOMS PER CELL         6 COULOMB OVERLAP TOL          (T1) 10**   -6
 NUMBER OF SHELLS            36 COULOMB PENETRATION TOL      (T2) 10**   -6
 NUMBER OF AO                84 EXCHANGE OVERLAP TOL         (T3) 10**   -6
 N. OF ELECTRONS PER CELL    44 EXCHANGE PSEUDO OVP (F(G))   (T4) 10**   -6
 CORE ELECTRONS PER CELL     12 EXCHANGE PSEUDO OVP (P(G))   (T5) 10**  -12
 N. OF SYMMETRY OPERATORS    16 POLE ORDER IN MONO ZONE                   4
 *******************************************************************************
   ATOM N.AT.  SHELL    X(A)      Y(A)      Z(A)      EXAD       N.ELECT.
 *******************************************************************************
    1    6 C     6     2.405     2.405     0.000   4.286E-01       5.324
    2    6 C     6     0.000     0.000     1.865   4.286E-01       5.324
    3    8 O     6     0.825     0.825     1.865   1.790E-01       8.338
    4    8 O     6    -0.825    -0.825     1.865   1.790E-01       8.338
    5    8 O     6    -1.580     1.580     0.000   1.790E-01       8.338
    6    8 O     6     1.580    -1.580     0.000   1.790E-01       8.338
 *******************************************************************************
 DE(K)                   0.000E+00  ENERGY LEVEL SHIFTING        0.00000
 TOTAL ENERGY -3.7669569535682E+02  CONVERGENCE ON ENER       -2.256E-08
 KIN. ENERGY   3.7372349414743E+02  VIR. COEFF.           1.04664322E+00
 N. OF SCF CYCLES                7  FERMI ENERGY              -0.372E+00
 WEIGHT OF F(I) IN F(I+1)      30
 SHRINK. FACT.(MONKH.)     4  4  4  SHRINKING FACTOR(GILAT NET)        4
 NUMBER OF K POINTS IN THE IBZ  18  CELL VOLUME (A.U.)        582.365437
 *******************************************************************************

 GCALCO - MAX INDICES DIRECT LATTICE VECTOR    13    13    18
 NO.OF VECTORS CREATED 6999 STARS  524 RMAX    99.00914 BOHR
 TTTTTTTTTTTTTTTTTTTTTTTTTTTTTT gordsh1     TELAPSE        0.10 TCPU        0.09

 MATRIX SIZE: P(G)  114280, F(G)   19678, P(G) IRR    6534, F(G) IRR    2664
 MAX G-VECTOR INDEX FOR 1- AND 2-ELECTRON INTEGRALS 127


 CAPPA:IS1  4;IS2  4;IS3  4; K PTS MONK NET  18; SYMMOPS:K SPACE  16;G SPACE  16

 *******************************************************************************
 *                                                                             *
 *                              T O P O N D  2 0 2 1                           *
 *                                                                             *
 *           AN ELECTRON DENSITY TOPOLOGICAL ANALYSIS PROGRAM FOR              *
 *                 SYSTEMS PERIODIC IN N (N=0-3) DIMENSIONS                    *
 *                                                                             *
 *               USER MANUAL BY CARLO GATTI AND SILVIA CASASSA                 *
 *                                                                             *
 *            CNR-ISTM, ISTITUTO DI SCIENZE E TECNOLOGIE MOLECOLARI            *
 *                   VIA GOLGI 19  - I-20133 MILANO - ITALIA                   *
 *                     E-MAIL: c.gatti@istm.cnr.it                             *
 *                                                                             *
 *******************************************************************************

  TOPOND PARAMETER 

  LIM016 [INF24]        =       1000
  LIM015 [INF20]        =         36
  LIM035 [LIM016*INF5]  =     524000
  NTOMAX [LIM016*INF5]  =     524000
  INF79  [INF79]        =       6999
  MAXGSTAR [INF2*INF5]  =        384

 *******************************************************************************
 *******************************************************************************
 *                                                                             *
 *               TOPOND GENERALISATION TO F AND G ATOMIC ORBITALS              *
 *                                                                             *
 *                     BY ALESSANDRO COSSARD, JACQUES DESMARAIS                *
 *                            AND ALESSANDRO ERBA                              *
 *                                                                             *
 *      PLEASE CITE: A. Cossard, J. K. Desmarais, S.Casassa, C. Gatti and      *
 *            A. Erba, J. Phys. Chem. Lett., 12, 1862-1868 (2021)              *
 *                                                                             *
 *******************************************************************************

CRYSTAL INFORMATION ON THE REFERENCE SYSTEM:

 DIRECT LATTICE VECTOR COMPONENTS (BOHR)
         9.08958    0.00000    0.00000
         0.00000    9.08958    0.00000
         0.00000    0.00000    7.04868

 LATTICE PARAMETERS  (BOHR AND DEGREES) - PRIMITIVE CELL
        A           B           C        ALPHA        BETA       GAMMA       VOLUME
     9.08958     9.08958     7.04868    90.00000    90.00000    90.00000   582.36544
 *******************************************************************************
 N. OF ATOMS PER CELL        6  COULOMB OVERLAP TOL         (T1) 10** -6
 NUMBER OF SHELLS           36  COULOMB PENETRATION TOL     (T2) 10** -6
 NUMBER OF AO               84  EXCHANGE OVERLAP TOL        (T3) 10** -6
 N. OF ELECTRONS PER CELL    44 EXCHANGE PSEUDO OVP (F(G))  (T4) 10** -6
 CORE ELECTRONS PER CELL    12  EXCHANGE PSEUDO OVP (P(G))  (T5) 10**-12
 N. OF SYMMETRY OPERATORS   16  POLE ORDER IN MONO ZONE                4
 *******************************************************************************
  ATOM  SHEL    X(AU)     Y(AU)     Z(AU)
 *******************************************************************************
    6 C    6     4.545     4.545     0.000
    6 C    6     0.000     0.000     3.524
    8 O    6     1.559     1.559     3.524
    8 O    6    -1.559    -1.559     3.524
    8 O    6    -2.986     2.986     0.000
    8 O    6     2.986    -2.986     0.000
 *******************************************************************************
 DE(K)                  0.000E+00  CONVERGENCE ON EIGENVALUES   10**-20
 WEIGHT OF F(I) IN F(I+1)     30%  CONVERGENCE ON ENERGY        10**- 6
 TOTAL ENERGY     -3.76695695E+02  FERMI ENERGY              -3.716E-01
 KIN. ENERGY       3.73723494E+02  VIR. COEFF.           1.04664322E+00
 SHRINK. FACT.(MONKH.)    4  4  4  STARS FOR FOURIER EXP. OF E(K)     1
 SHRINKING FACTOR (GILAT NET)   4  NUMBER OF K POINTS IN THE IBZ     18
 CELL VOLUME (A.U.)         582.365N. OF SCF CYCLES                   7
 ENERGY LEVEL SHIFTING    0.00000
 *******************************************************************************

 NEIGHBORS OF THE NON-EQUIVALENT ATOMS

 N = NUMBER OF NEIGHBORS AT DISTANCE R
    ATOM  N     R/ANG      R/AU   NEIGHBORS (ATOM LABELS AND CELL INDICES)

   1 C    2     1.1666     2.2046   5 O    1 0 0   6 O    0 1 0
   1 C    4     2.9106     5.5002   3 O    0 0 0   3 O    0 0-1   4 O    1 1 0
                                    4 O    1 1-1
   1 C    2     3.7300     7.0487   1 C    0 0-1   1 C    0 0 1
   1 C    8     3.8790     7.3302   2 C    0 0 0   2 C    0 0-1   2 C    1 0 0
                                    2 C    0 1 0   2 C    1 0-1   2 C    0 1-1
                                    2 C    1 1 0   2 C    1 1-1
   1 C    4     3.9082     7.3854   5 O    1 0-1   5 O    1 0 1   6 O    0 1-1
                                    6 O    0 1 1
   1 C    8     4.0506     7.6545   3 O    1 0 0   3 O    0 1 0   3 O    1 0-1
                                    3 O    0 1-1   4 O    0 1 0   4 O    1 0 0
                                    4 O    0 1-1   4 O    1 0-1
   1 C    4     4.0696     7.6904   5 O    0 0 0   5 O    1 1 0   6 O    1 1 0
                                    6 O    0 0 0

   3 O    1     1.1666     2.2046   2 C    0 0 0
   3 O    1     2.3332     4.4092   4 O    0 0 0
   3 O    2     2.9106     5.5002   1 C    0 0 0   1 C    0 0 1
   3 O    8     3.1357     5.9256   5 O    0 0 0   5 O    0 0 1   5 O    1 0 0
                                    5 O    1 0 1   6 O    0 0 1   6 O    0 0 0
                                    6 O    0 1 1   6 O    0 1 0
   3 O    2     3.5649     6.7367   4 O    1 0 0   4 O    0 1 0
   3 O    2     3.7300     7.0487   3 O    0 0-1   3 O    0 0 1
   3 O    2     3.9082     7.3854   2 C    0 0-1   2 C    0 0 1



 ************* T O P O L O G I C A L  A N A L I S Y S  O F  R H O *************


 COMPUTATIONAL CONDITIONS :
                           IAUTO                                     :     3
                           ALGORITHM FOR CP SEARCH                   :    NR
                           DETERMINATION OF BOND PATH ATTRACTORS     :     T
                           MAX.NUM. OF N.R. OR EIG. FOL. STEPS       :    10
                           NEIGHBORS OF EACH NON-EQUIVALENT ATOM     :     7
                           PRINT N.RAPH OR E.FOL. OR PAR. EQ. SEARCH :     F
                           XMIN (FRACT. COORD.)                      :    0.000
                           XMAX                                      :    0.500
                           YMIN                                      :    0.000
                           YMAX                                      :    0.500
                           ZMIN                                      :    0.000
                           ZMAX                                      :    1.000
                           XINC                                      :    0.025
                           YINC                                      :    0.025
                           ZINC                                      :    0.025
                           TOTAL NUMBER OF CONSTRAINTS               :     1

 CP N.      1
 *********

 CP TYPE                        :  (3,+3)
 COORD(AU)  (X  Y  Z)           : -1.6207E-16 -1.9696E-16  1.9373E-18
 COORD FRACT. CONV. CELL        : -1.7831E-17 -2.1669E-17  2.7484E-19
 PROPERTIES (RHO,GRHO,LAP)      :  8.1547E-04  1.1011E-19  5.7811E-03
 KINETIC ENERGY DENSITIES (G,K) :  8.7161E-04 -5.7366E-04
 VIRIAL DENSITY                 : -2.9794E-04
 ELF(PAA)                       :  5.4947E-04

 SPECTRAL DECOMP. OF THE HESSIAN OF RHO

 EIGENVALUES (L1 L2 L3)         :  4.8459E-04  5.5512E-04  4.7414E-03
 EIGENVECTORS                   :  7.0711E-01  7.0711E-01  0.0000E+00
                                  -7.0711E-01  7.0711E-01  5.2015E-16
                                   3.6780E-16 -3.6780E-16  1.0000E+00


 CLUSTER OF ATOMS AROUND THE CP 
 NEW  OLD   CELL  AT. NU.         COORD.(AU)             DISTANCE (ANG)
     1       2       0     0    -1    6        0.000   0.000  -3.524          1.865
     2       2       0     0     0    6        0.000   0.000   3.524          1.865
     3       4       0     0    -1    8       -1.559  -1.559  -3.524          2.200
     4       4       0     0     0    8       -1.559  -1.559   3.524          2.200
     5       3       0     0    -1    8        1.559   1.559  -3.524          2.200
     6       3       0     0     0    8        1.559   1.559   3.524          2.200
     7       6       0     0     0    8        2.986  -2.986   0.000          2.235

 CP N.      2
 *********

 CP TYPE                        :  (3,-3)
 COORD(AU)  (X  Y  Z)           : -1.5640E-22  1.9772E-22  3.5243E+00
 COORD FRACT. CONV. CELL        : -1.7207E-23  2.1753E-23  5.0000E-01
 PROPERTIES (RHO,GRHO,LAP)      :  1.1214E+02  2.5746E-17 -2.5821E+05
 KINETIC ENERGY DENSITIES (G,K) :  5.9831E+00  6.4558E+04
 VIRIAL DENSITY                 : -6.4564E+04
 ELF(PAA)                       :  1.0000E+00

 SPECTRAL DECOMP. OF THE HESSIAN OF RHO

 EIGENVALUES (L1 L2 L3)         : -8.6070E+04 -8.6070E+04 -8.6068E+04
 EIGENVECTORS                   :  0.0000E+00  7.0711E-01  7.0711E-01
                                  -1.0494E-19 -7.0711E-01  7.0711E-01
                                   1.0000E+00 -7.4204E-20  7.4204E-20


 CLUSTER OF ATOMS AROUND THE CP 
 NEW  OLD   CELL  AT. NU.         COORD.(AU)             DISTANCE (ANG)
     1       2       0     0     0    6        0.000   0.000   3.524          0.000
     2       4       0     0     0    8       -1.559  -1.559   3.524          1.167
     3       3       0     0     0    8        1.559   1.559   3.524          1.167
     4       6       0     0     1    8        2.986  -2.986   7.049          2.911
     5       6       0     0     0    8        2.986  -2.986   0.000          2.911
     6       5       0     0     1    8       -2.986   2.986   7.049          2.911
     7       5       0     0     0    8       -2.986   2.986   0.000          2.911

 CP N.      3
 *********

 CP TYPE                        :  (3,-1)
 COORD(AU)  (X  Y  Z)           :  5.4382E-01  5.4382E-01  3.5243E+00
 COORD FRACT. CONV. CELL        :  5.9829E-02  5.9829E-02  5.0000E-01
 PROPERTIES (RHO,GRHO,LAP)      :  4.3587E-01  4.3650E-11 -7.8624E-02
 KINETIC ENERGY DENSITIES (G,K) :  7.7086E-01  7.9051E-01
 VIRIAL DENSITY                 : -1.5614E+00
 ELF(PAA)                       :  4.6553E-01

 SPECTRAL DECOMP. OF THE HESSIAN OF RHO

 EIGENVALUES (L1 L2 L3)         : -1.0880E+00 -1.0861E+00  2.0954E+00
 EIGENVECTORS                   :  0.0000E+00  7.0711E-01  7.0711E-01
                                   1.9120E-11 -7.0711E-01  7.0711E-01
                                   1.0000E+00  1.3520E-11 -1.3520E-11

 ELLIPTICITY                    :  1.7439E-03

 CLUSTER OF ATOMS AROUND THE CP 
 NEW  OLD   CELL  AT. NU.         COORD.(AU)             DISTANCE (ANG)
     1       2       0     0     0    6        0.000   0.000   3.524          0.407
     2       3       0     0     0    8        1.559   1.559   3.524          0.760
     3       4       0     0     0    8       -1.559  -1.559   3.524          1.574
     4       6       0     0     0    8        2.986  -2.986   0.000          2.939
     5       5       0     0     0    8       -2.986   2.986   0.000          2.939
     6       6       0     0     1    8        2.986  -2.986   7.049          2.939
     7       5       0     0     1    8       -2.986   2.986   7.049          2.939

 ******************************
 SEARCH OF BOND PATH ATTRACTORS
 ******************************

 CP N.      4
**********

 ATTRACTOR CP TYPE              :  (3,-3)
 COORD(AU)  (X  Y  Z)           :  1.5589E+00  1.5589E+00  3.5243E+00
 COORD FRACT. CONV. CELL        :  1.7150E-01  1.7150E-01  5.0000E-01
 PROPERTIES (RHO,GRHO,LAP)      :  2.7904E+02  5.0923E-11 -1.1637E+06
 TRAJECTORY LENGTH(ANG)         :  7.5962E-01
 INTEGRATION STEPS              :      53

 CLUSTER OF ATOMS AROUND THE TERMINUS OF THE PATH 
 NEW  OLD   CELL  AT. NU.         COORD.(AU)             DISTANCE (ANG)
     1       3       0     0     0    8        1.559   1.559   3.524          0.000
     2       2       0     0     0    6        0.000   0.000   3.524          1.167
     3       4       0     0     0    8       -1.559  -1.559   3.524          2.333
     4       1       0     0     1    6        4.545   4.545   7.049          2.911


 ATTRACTOR CP TYPE              :  (3,-3)
 COORD(AU)  (X  Y  Z)           :  5.3767E-21  6.5265E-21  3.5243E+00
 COORD FRACT. CONV. CELL        :  5.9152E-22  7.1801E-22  5.0000E-01
 PROPERTIES (RHO,GRHO,LAP)      :  1.1214E+02  7.1680E-16 -2.5821E+05
 TRAJECTORY LENGTH(ANG)         :  4.0698E-01
 INTEGRATION STEPS              :      44

 CLUSTER OF ATOMS AROUND THE TERMINUS OF THE PATH 
 NEW  OLD   CELL  AT. NU.         COORD.(AU)             DISTANCE (ANG)
     1       2       0     0     0    6        0.000   0.000   3.524          0.000
     2       4       0     0     0    8       -1.559  -1.559   3.524          1.167
     3       3       0     0     0    8        1.559   1.559   3.524          1.167
     4       6       0     0     1    8        2.986  -2.986   7.049          2.911


 BPL (ANG) ; RAB ; (BPL/RAB)    :  1.1666E+00  1.1666E+00  9.9999E-01

 CP N.      5
 *********

 CP TYPE                        :  (3,+1)
 COORD(AU)  (X  Y  Z)           :  5.9415E-01  1.6454E+00  4.4885E-18
 COORD FRACT. CONV. CELL        :  6.5366E-02  1.8103E-01  6.3679E-19
 PROPERTIES (RHO,GRHO,LAP)      :  1.1581E-03  1.4114E-11  7.2463E-03
 KINETIC ENERGY DENSITIES (G,K) :  1.2007E-03 -6.1086E-04
 VIRIAL DENSITY                 : -5.8984E-04
 ELF(PAA)                       :  9.3196E-04

 SPECTRAL DECOMP. OF THE HESSIAN OF RHO

 EIGENVALUES (L1 L2 L3)         : -5.7164E-04  1.3407E-03  6.4772E-03
 EIGENVECTORS                   : -3.2846E-01  9.4452E-01  0.0000E+00
                                  -9.4452E-01 -3.2846E-01 -1.1585E-16
                                  -1.0942E-16 -3.8053E-17  1.0000E+00


 CLUSTER OF ATOMS AROUND THE CP 
 NEW  OLD   CELL  AT. NU.         COORD.(AU)             DISTANCE (ANG)
     1       3       0     0    -1    8        1.559   1.559  -3.524          1.934
     2       3       0     0     0    8        1.559   1.559   3.524          1.934
     3       5       0     0     0    8       -2.986   2.986   0.000          2.023
     4       2       0     0    -1    6        0.000   0.000  -3.524          2.082
     5       2       0     0     0    6        0.000   0.000   3.524          2.082
     6       1       0     0     0    6        4.545   4.545   0.000          2.593
     7       6       0     1     0    8        2.986   6.104   0.000          2.677

 CP N.      6
 *********

 CP TYPE                        :  (3,+1)
 COORD(AU)  (X  Y  Z)           :  3.4453E-01  3.8441E+00  8.1207E-01
 COORD FRACT. CONV. CELL        :  3.7904E-02  4.2291E-01  1.1521E-01
 PROPERTIES (RHO,GRHO,LAP)      :  1.3567E-03  1.0077E-15  8.0104E-03
 KINETIC ENERGY DENSITIES (G,K) :  1.3773E-03 -6.2528E-04
 VIRIAL DENSITY                 : -7.5203E-04
 ELF(PAA)                       :  1.1999E-03

 SPECTRAL DECOMP. OF THE HESSIAN OF RHO

 EIGENVALUES (L1 L2 L3)         : -8.8207E-04  2.3871E-03  6.5053E-03
 EIGENVECTORS                   : -3.1428E-01 -3.0203E-01  9.0000E-01
                                   6.4607E-01  6.2657E-01  4.3589E-01
                                   6.9557E-01 -7.1846E-01  1.7848E-03


 CLUSTER OF ATOMS AROUND THE CP 
 NEW  OLD   CELL  AT. NU.         COORD.(AU)             DISTANCE (ANG)
     1       5       0     0     0    8       -2.986   2.986   0.000          1.870
     2       6       0     1     0    8        2.986   6.104   0.000          1.889
     3       3       0     0     0    8        1.559   1.559   3.524          1.984
     4       1       0     0     0    6        4.545   4.545   0.000          2.294
     5       2       0     0     0    6        0.000   0.000   3.524          2.496
     6       4       0     1     0    8       -1.559   7.531   3.524          2.623
     7       1      -1     0     0    6       -4.545   4.545   0.000          2.649

 CP N.      7
 *********

 CP TYPE                        :  (3,+3)
 COORD(AU)  (X  Y  Z)           :  3.6350E-11  4.5448E+00  1.7622E+00
 COORD FRACT. CONV. CELL        :  3.9990E-12  5.0000E-01  2.5000E-01
 PROPERTIES (RHO,GRHO,LAP)      :  1.0383E-03  2.3674E-13  6.5728E-03
 KINETIC ENERGY DENSITIES (G,K) :  1.0670E-03 -5.7615E-04
 VIRIAL DENSITY                 : -4.9089E-04
 ELF(PAA)                       :  8.2001E-04

 SPECTRAL DECOMP. OF THE HESSIAN OF RHO

 EIGENVALUES (L1 L2 L3)         :  1.0542E-03  2.7593E-03  2.7593E-03
 EIGENVECTORS                   : -4.1436E-11  1.0000E+00 -3.8284E-10
                                   1.6624E-10 -3.8284E-10 -1.0000E+00
                                   1.0000E+00  4.1436E-11  1.6624E-10


 CLUSTER OF ATOMS AROUND THE CP 
 NEW  OLD   CELL  AT. NU.         COORD.(AU)             DISTANCE (ANG)
     1       3       0     0     0    8        1.559   1.559   3.524          2.012
     2       4       0     1     0    8       -1.559   7.531   3.524          2.012
     3       6       0     1     0    8        2.986   6.104   0.000          2.012
     4       5       0     0     0    8       -2.986   2.986   0.000          2.012
     5       2       0     0     0    6        0.000   0.000   3.524          2.579
     6       2       0     1     0    6        0.000   9.090   3.524          2.579
     7       1       0     0     0    6        4.545   4.545   0.000          2.579

 CP N.      8
 *********

 CP TYPE                        :  (3,-1)
 COORD(AU)  (X  Y  Z)           :  4.7165E-16  4.5448E+00  4.0886E-17
 COORD FRACT. CONV. CELL        :  5.1889E-17  5.0000E-01  5.8005E-18
 PROPERTIES (RHO,GRHO,LAP)      :  1.7116E-03  9.2039E-19  9.0874E-03
 KINETIC ENERGY DENSITIES (G,K) :  1.6693E-03 -6.0255E-04
 VIRIAL DENSITY                 : -1.0667E-03
 ELF(PAA)                       :  1.7716E-03

 SPECTRAL DECOMP. OF THE HESSIAN OF RHO

 EIGENVALUES (L1 L2 L3)         : -1.0998E-03 -1.0862E-03  1.1273E-02
 EIGENVECTORS                   :  4.4432E-01  0.0000E+00  8.9587E-01
                                  -8.9587E-01  1.2216E-18  4.4432E-01
                                   1.0944E-18  1.0000E+00 -5.4277E-19

 ELLIPTICITY                    :  1.2502E-02

 CLUSTER OF ATOMS AROUND THE CP 
 NEW  OLD   CELL  AT. NU.         COORD.(AU)             DISTANCE (ANG)
     1       6       0     1     0    8        2.986   6.104   0.000          1.782
     2       5       0     0     0    8       -2.986   2.986   0.000          1.782
     3       1       0     0     0    6        4.545   4.545   0.000          2.405
     4       1      -1     0     0    6       -4.545   4.545   0.000          2.405
     5       3       0     0    -1    8        1.559   1.559  -3.524          2.580
     6       3       0     0     0    8        1.559   1.559   3.524          2.580
     7       4       0     1    -1    8       -1.559   7.531  -3.524          2.580

 ******************************
 SEARCH OF BOND PATH ATTRACTORS
 ******************************

 ATTRACTOR CP TYPE              :  (3,-3)
 COORD(AU)  (X  Y  Z)           :  2.9859E+00  6.1036E+00 -8.9384E-25
 COORD FRACT. CONV. CELL        :  3.2850E-01 -3.2850E-01 -1.2681E-25
 PROPERTIES (RHO,GRHO,LAP)      :  2.7904E+02  7.0748E-11 -1.1637E+06
 TRAJECTORY LENGTH(ANG)         :  1.7828E+00
 INTEGRATION STEPS              :      74

 CLUSTER OF ATOMS AROUND THE TERMINUS OF THE PATH 
 NEW  OLD   CELL  AT. NU.         COORD.(AU)             DISTANCE (ANG)
     1       6       0     1     0    8        2.986   6.104   0.000          0.000
     2       1       0     0     0    6        4.545   4.545   0.000          1.167
     3       5       1     0     0    8        6.104   2.986   0.000          2.333
     4       2       0     1    -1    6        0.000   9.090  -3.524          2.911


 ATTRACTOR CP TYPE              :  (3,-3)
 COORD(AU)  (X  Y  Z)           : -2.9859E+00  2.9859E+00 -4.9652E-25
 COORD FRACT. CONV. CELL        : -3.2850E-01  3.2850E-01 -7.0442E-26
 PROPERTIES (RHO,GRHO,LAP)      :  2.7904E+02  7.0856E-11 -1.1637E+06
 TRAJECTORY LENGTH(ANG)         :  1.7828E+00
 INTEGRATION STEPS              :      78

 CLUSTER OF ATOMS AROUND THE TERMINUS OF THE PATH 
 NEW  OLD   CELL  AT. NU.         COORD.(AU)             DISTANCE (ANG)
     1       5       0     0     0    8       -2.986   2.986   0.000          0.000
     2       1      -1     0     0    6       -4.545   4.545   0.000          1.167
     3       6      -1     1     0    8       -6.104   6.104   0.000          2.333
     4       2       0     0    -1    6        0.000   0.000  -3.524          2.911


 BPL (ANG) ; RAB ; (BPL/RAB)    :  3.5657E+00  3.5649E+00  1.0002E+00

 CP N.      9
 *********

 CP TYPE                        :  (3,+3)
 COORD(AU)  (X  Y  Z)           :  8.1939E-01  2.8046E+00  1.0241E-10
 COORD FRACT. CONV. CELL        :  9.0146E-02  3.0855E-01  1.4529E-11
 PROPERTIES (RHO,GRHO,LAP)      :  9.6098E-04  2.4004E-12  6.3443E-03
 KINETIC ENERGY DENSITIES (G,K) :  1.0153E-03 -5.7075E-04
 VIRIAL DENSITY                 : -4.4455E-04
 ELF(PAA)                       :  6.9987E-04

 SPECTRAL DECOMP. OF THE HESSIAN OF RHO

 EIGENVALUES (L1 L2 L3)         :  8.0500E-04  2.3587E-03  3.1806E-03
 EIGENVECTORS                   :  3.5367E-01  9.3537E-01  0.0000E+00
                                  -9.3537E-01  3.5367E-01 -4.0063E-10
                                  -3.7474E-10  1.4169E-10  1.0000E+00


 CLUSTER OF ATOMS AROUND THE CP 
 NEW  OLD   CELL  AT. NU.         COORD.(AU)             DISTANCE (ANG)
     1       5       0     0     0    8       -2.986   2.986   0.000          2.016
     2       3       0     0     0    8        1.559   1.559   3.524          2.016
     3       3       0     0    -1    8        1.559   1.559  -3.524          2.016
     4       6       0     1     0    8        2.986   6.104   0.000          2.089
     5       1       0     0     0    6        4.545   4.545   0.000          2.176
     6       2       0     0     0    6        0.000   0.000   3.524          2.423
     7       2       0     0    -1    6        0.000   0.000  -3.524          2.423

 CP N.     10
 *********

 CP TYPE                        :  (3,-1)
 COORD(AU)  (X  Y  Z)           :  1.4627E+00  1.4627E+00  8.0405E-18
 COORD FRACT. CONV. CELL        :  1.6092E-01  1.6092E-01  1.1407E-18
 PROPERTIES (RHO,GRHO,LAP)      :  1.2782E-03  4.9115E-14  7.5782E-03
 KINETIC ENERGY DENSITIES (G,K) :  1.2995E-03 -5.9504E-04
 VIRIAL DENSITY                 : -7.0448E-04
 ELF(PAA)                       :  1.1052E-03

 SPECTRAL DECOMP. OF THE HESSIAN OF RHO

 EIGENVALUES (L1 L2 L3)         : -6.8309E-04 -4.0320E-04  8.6645E-03
 EIGENVECTORS                   : -7.0711E-01  7.0711E-01  0.0000E+00
                                   7.0711E-01  7.0711E-01  1.7177E-17
                                  -1.2146E-17 -1.2146E-17  1.0000E+00

 ELLIPTICITY                    :  6.9415E-01

 CLUSTER OF ATOMS AROUND THE CP 
 NEW  OLD   CELL  AT. NU.         COORD.(AU)             DISTANCE (ANG)
     1       3       0     0    -1    8        1.559   1.559  -3.524          1.866
     2       3       0     0     0    8        1.559   1.559   3.524          1.866
     3       2       0     0    -1    6        0.000   0.000  -3.524          2.163
     4       2       0     0     0    6        0.000   0.000   3.524          2.163
     5       1       0     0     0    6        4.545   4.545   0.000          2.307
     6       6       0     0     0    8        2.986  -2.986   0.000          2.488
     7       5       0     0     0    8       -2.986   2.986   0.000          2.488

 ******************************
 SEARCH OF BOND PATH ATTRACTORS
 ******************************

 ATTRACTOR CP TYPE              :  (3,-3)
 COORD(AU)  (X  Y  Z)           :  1.5589E+00  1.5589E+00  3.5243E+00
 COORD FRACT. CONV. CELL        :  1.7150E-01  1.7150E-01  5.0000E-01
 PROPERTIES (RHO,GRHO,LAP)      :  2.7904E+02  5.0923E-11 -1.1637E+06
 TRAJECTORY LENGTH(ANG)         :  1.8692E+00
 INTEGRATION STEPS              :      75

 CLUSTER OF ATOMS AROUND THE TERMINUS OF THE PATH 
 NEW  OLD   CELL  AT. NU.         COORD.(AU)             DISTANCE (ANG)
     1       3       0     0     0    8        1.559   1.559   3.524          0.000
     2       2       0     0     0    6        0.000   0.000   3.524          1.167
     3       4       0     0     0    8       -1.559  -1.559   3.524          2.333
     4       1       0     0     1    6        4.545   4.545   7.049          2.911


 ATTRACTOR CP TYPE              :  (3,-3)
 COORD(AU)  (X  Y  Z)           :  1.5589E+00  1.5589E+00 -3.5243E+00
 COORD FRACT. CONV. CELL        :  1.7150E-01  1.7150E-01  5.0000E-01
 PROPERTIES (RHO,GRHO,LAP)      :  2.7904E+02  5.0923E-11 -1.1637E+06
 TRAJECTORY LENGTH(ANG)         :  1.8692E+00
 INTEGRATION STEPS              :      78

 CLUSTER OF ATOMS AROUND THE TERMINUS OF THE PATH 
 NEW  OLD   CELL  AT. NU.         COORD.(AU)             DISTANCE (ANG)
     1       3       0     0    -1    8        1.559   1.559  -3.524          0.000
     2       2       0     0    -1    6        0.000   0.000  -3.524          1.167
     3       4       0     0    -1    8       -1.559  -1.559  -3.524          2.333
     4       1       0     0    -1    6        4.545   4.545  -7.049          2.911


 BPL (ANG) ; RAB ; (BPL/RAB)    :  3.7385E+00  3.7300E+00  1.0023E+00

 CP N.     11
 *********

 CP TYPE                        :  (3,+1)
 COORD(AU)  (X  Y  Z)           :  1.8427E+00  1.8427E+00  6.6557E-16
 COORD FRACT. CONV. CELL        :  2.0273E-01  2.0273E-01  9.4425E-17
 PROPERTIES (RHO,GRHO,LAP)      :  1.2532E-03  2.0009E-12  7.6395E-03
 KINETIC ENERGY DENSITIES (G,K) :  1.2895E-03 -6.2034E-04
 VIRIAL DENSITY                 : -6.6919E-04
 ELF(PAA)                       :  1.0508E-03

 SPECTRAL DECOMP. OF THE HESSIAN OF RHO

 EIGENVALUES (L1 L2 L3)         : -6.1320E-04  6.5826E-04  7.5945E-03
 EIGENVECTORS                   :  7.0711E-01  7.0711E-01  0.0000E+00
                                  -7.0711E-01  7.0711E-01  2.1180E-15
                                   1.4976E-15 -1.4976E-15  1.0000E+00


 CLUSTER OF ATOMS AROUND THE CP 
 NEW  OLD   CELL  AT. NU.         COORD.(AU)             DISTANCE (ANG)
     1       3       0     0     0    8        1.559   1.559   3.524          1.877
     2       3       0     0    -1    8        1.559   1.559  -3.524          1.877
     3       1       0     0     0    6        4.545   4.545   0.000          2.022
     4       2       0     0     0    6        0.000   0.000   3.524          2.319
     5       2       0     0    -1    6        0.000   0.000  -3.524          2.319
     6       5       1     0     0    8        6.104   2.986   0.000          2.335
     7       6       0     1     0    8        2.986   6.104   0.000          2.335


 NUMBER OF UNIQUE CRI. POINT FOUND:    11


        ********** C R I T I C A L  P O I N T S  F O U N D **********


 CP N.  X(AU)   Y(AU)   Z(AU)   TYPE      RHO    LAPL   L1(V1) L2(V2) L3(V3) ELLIP

 *******************************************************************************
    1) -0.000  -0.000   0.000  (3,+3)    0.001   0.006   0.000   0.001   0.005
                                                    0.707   0.707   0.000
                                                   -0.707   0.707   0.000
                                                    0.000  -0.000   1.000


    2) -0.000   0.000   3.524  (3,-3)  112.144-999.999-999.999-999.999-999.999
                                                    0.000   0.707   0.707
                                                   -0.000  -0.707   0.707
                                                    1.000  -0.000   0.000


    3)  0.544   0.544   3.524  (3,-1)    0.436  -0.079  -1.088  -1.086   2.095  0.002

 ( C       2       0      0      0   0.769  AU)     0.000   0.707   0.707
 ( O       3       0      0      0   1.435  AU)     0.000  -0.707   0.707
                                                    1.000   0.000  -0.000


    4)  1.559   1.559   3.524  (3,-3)  279.043-999.999-999.999-999.999-999.999
                                                   -0.707   0.000   0.707
                                                   -0.707  -0.000  -0.707
                                                   -0.000   1.000  -0.000


    5)  0.594   1.645   0.000  (3,+1)    0.001   0.007  -0.001   0.001   0.006
                                                   -0.328   0.945   0.000
                                                   -0.945  -0.328  -0.000
                                                   -0.000  -0.000   1.000


    6)  0.345   3.844   0.812  (3,+1)    0.001   0.008  -0.001   0.002   0.007
                                                   -0.314  -0.302   0.900
                                                    0.646   0.627   0.436
                                                    0.696  -0.718   0.002


    7)  0.000   4.545   1.762  (3,+3)    0.001   0.007   0.001   0.003   0.003
                                                   -0.000   1.000  -0.000
                                                    0.000  -0.000  -1.000
                                                    1.000   0.000   0.000


    8)  0.000   4.545   0.000  (3,-1)    0.002   0.009  -0.001  -0.001   0.011  0.013

 ( O       6       0      1      0   3.369  AU)     0.444   0.000   0.896
 ( O       5       0      0      0   3.369  AU)    -0.896   0.000   0.444
                                                    0.000   1.000  -0.000


    9)  0.819   2.805   0.000  (3,+3)    0.001   0.006   0.001   0.002   0.003
                                                    0.354   0.935   0.000
                                                   -0.935   0.354  -0.000
                                                   -0.000   0.000   1.000


   10)  1.463   1.463   0.000  (3,-1)    0.001   0.008  -0.001  -0.000   0.009  0.694

 ( O       3       0      0      0   3.532  AU)    -0.707   0.707   0.000
 ( O       3       0      0     -1   3.532  AU)     0.707   0.707   0.000
                                                   -0.000  -0.000   1.000


   11)  1.843   1.843   0.000  (3,+1)    0.001   0.008  -0.001   0.001   0.008
                                                    0.707   0.707   0.000
                                                   -0.707   0.707   0.000
                                                    0.000  -0.000   1.000


 *******************************************************************************
 TTTTTTTTTTTTTTTTTTTTTTTTTTTTTT TRHO        TELAPSE      315.10 TCPU      302.15
 TTTTTTTTTTTTTTTTTTTTTTTTTTTTTT END         TELAPSE      315.10 TCPU      302.15
 EEEEEEEEEE TERMINATION  DATE 21 01 2023 TIME 15:03:13.9
