
         
 *******************************************************************************
 *                                                                             *
 *                               CRYSTAL23                                     *
 *                      public : 1.0.1 - October 2022                          *
 *                       HTTP://WWW.CRYSTAL.UNITO.IT                           *
 *                                                                             *
 *                              MAIN AUTHORS                                   *
 *                                                                             *
 *  R. DOVESI(1,11), V.R. SAUNDERS(2), C. ROETTI(1,11), R. ORLANDO(1,11),      *
 *  C.M. ZICOVICH-WILSON(1,3), F. PASCALE(4), B. CIVALLERI(1,11),              *
 *  K. DOLL(5), N.M. HARRISON(6), I.J. BUSH(7), Ph. D'ARCO(8),                 *
 *  M. LLUNELL(9), M. CAUSA'(10), Y. NOEL(8), L. MASCHIO(1,11), A. ERBA(1,11)  *
 *  M. RE'RAT(14), S. CASASSA(1,11), B.G. SEARLE(2), J.K. DESMARAIS(1)         *
 *                                                                             *
 *        CONTRIBUTIONS TO THE CODE HAVE ALSO BEEN GIVEN BY                    *
 *                                                                             *
 *  M. FERRABONE(1,11), M. DE LA PIERRE(1,11), M. FERRERO(1,11),               *
 *  J. BAIMA(1,11), E. ALBANESE(1,11), M.F. PEINTINGER(12), R. BAST(13),       *
 *  B. KIRTMAN(15), V. LACIVITA(1,11), R. DEMICHELIS(1,16)                     *
 *  G. BRANDEBURG(17), S. SALUSTRO(1,11), G. SANSONE(1,11)                     *
 *  M.T. RUGGIERO(18), L.E. DAGA(1), L. DONA'(1), A. COSSARD(1)                *
 *                                                                             *
 * (1) THEORETICAL CHEMISTRY GROUP - UNIVERSITA' DI TORINO - TORINO (ITALY)    *
 * (2) SCIENTIFIC COMPUTING DEPARTMENT - STFC DARESBURY (UK)                   *
 * (3) UNIVERSIDAD AUTONOMA DEL ESTADO DE MORELOS - CUERNAVACA (MEXICO)        *
 * (4) UNIVERSITE' DE LORRAINE - NANCY (FRANCE)                                *
 * (5) UNIVERSITAET STUTTGART- STUTTGART (GERMANY)                             *
 * (6) IMPERIAL COLLEGE - LONDON (UK)                                          *
 * (7) SCIENTIFIC COMPUTING DEPARTMENT - STFC RAL (UK)                         *
 * (8) UPMC - SORBONNE UNIVERSITES - PARIS (FRANCE)                            *
 * (9) UNIVERSIDAD DE BARCELONA - BARCELONA (SPAIN)                            *
 *(10) UNIVERSITA' DI NAPOLI "FEDERICO II" - NAPOLI (ITALY)                    *
 *(11) NIS - NANOSTRUCTURED INTERFACES AND SURFACES - TORINO (ITALY)           *
 *(12) MPI FUER CHEMISCHE ENERGIEKONVERSION - MUELHEIM AN DER RUHR (GERMANY)   *
 *(13) UNIVERSITY OF TROMSO - TROMSO (NORWAY)                                  *
 *(14) UNIVERSITE' DE PAU ET DES PAYS DE L'ADOUR - PAU (FRANCE)                *
 *(15) UNIVERSITY OF CALIFORNIA SANTA BARBARA - SANTA BARBARA (USA)            *
 *(16) CURTIN UNIVERSITY - PERTH (AUSTRALIA)                                   *
 *(17) UNIVERSITY COLLEGE LONDON - LONDON (UK)                                 *
 *(18) UNIVERSITY OF VERMONT - BURLINGTON (USA)                                *
 *                                                                             *
 *******************************************************************************
 EEEEEEEEEE STARTING  DATE 21 01 2023 TIME 14:58:45.2
 INFORMATION **** SET_MPP **** PCRYSTAL CALCULATION

 *******************************************************************************
 CO2 mp-11725                                                                    
 CRYSTAL - PROPERTIES - TYPE OF CALCULATION :  RESTRICTED CLOSED SHELL
 *******************************************************************************
 KOHN-SHAM HAMILTONIAN

 (EXCHANGE)[CORRELATION] FUNCTIONAL:(BECKE 88)[LEE-YANG-PARR]

 NON-LOCAL WEIGHTING FACTOR (EXCHANGE) =           0.9000
 NON-LOCAL WEIGHTING FACTOR [CORRELATION] =        0.8100

 HYBRID EXCHANGE - PERCENTAGE OF FOCK EXCHANGE    20.0000

 DIRECT LATTICE VECTOR COMPONENTS (ANGSTROM)
         4.81000    0.00000    0.00000
         0.00000    4.81000    0.00000
         0.00000    0.00000    3.73000

 LATTICE PARAMETERS  (ANGSTROM AND DEGREES) - PRIMITIVE CELL
       A          B          C         ALPHA      BETA     GAMMA        VOLUME
    4.81000    4.81000    3.73000     90.0000   90.0000   90.0000      86.29765
 *******************************************************************************
 N. OF ATOMS PER CELL         6 COULOMB OVERLAP TOL          (T1) 10**   -6
 NUMBER OF SHELLS            36 COULOMB PENETRATION TOL      (T2) 10**   -6
 NUMBER OF AO                84 EXCHANGE OVERLAP TOL         (T3) 10**   -6
 N. OF ELECTRONS PER CELL    44 EXCHANGE PSEUDO OVP (F(G))   (T4) 10**   -6
 CORE ELECTRONS PER CELL     12 EXCHANGE PSEUDO OVP (P(G))   (T5) 10**  -12
 N. OF SYMMETRY OPERATORS    16 POLE ORDER IN MONO ZONE                   4
 *******************************************************************************
   ATOM N.AT.  SHELL    X(A)      Y(A)      Z(A)      EXAD       N.ELECT.
 *******************************************************************************
    1    6 C     6     2.405     2.405     0.000   4.286E-01       5.324
    2    6 C     6     0.000     0.000     1.865   4.286E-01       5.324
    3    8 O     6     0.825     0.825     1.865   1.790E-01       8.338
    4    8 O     6    -0.825    -0.825     1.865   1.790E-01       8.338
    5    8 O     6    -1.580     1.580     0.000   1.790E-01       8.338
    6    8 O     6     1.580    -1.580     0.000   1.790E-01       8.338
 *******************************************************************************
 DE(K)                   0.000E+00  ENERGY LEVEL SHIFTING        0.00000
 TOTAL ENERGY -3.7669569535682E+02  CONVERGENCE ON ENER       -2.256E-08
 KIN. ENERGY   3.7372349414743E+02  VIR. COEFF.           1.04664322E+00
 N. OF SCF CYCLES                7  FERMI ENERGY              -0.372E+00
 WEIGHT OF F(I) IN F(I+1)      30
 SHRINK. FACT.(MONKH.)     4  4  4  SHRINKING FACTOR(GILAT NET)        4
 NUMBER OF K POINTS IN THE IBZ  18  CELL VOLUME (A.U.)        582.365437
 *******************************************************************************

 GCALCO - MAX INDICES DIRECT LATTICE VECTOR    13    13    18
 NO.OF VECTORS CREATED 6999 STARS  524 RMAX    99.00914 BOHR
 TTTTTTTTTTTTTTTTTTTTTTTTTTTTTT gordsh1     TELAPSE        0.08 TCPU        0.07

 MATRIX SIZE: P(G)  114280, F(G)   19678, P(G) IRR    6534, F(G) IRR    2664
 MAX G-VECTOR INDEX FOR 1- AND 2-ELECTRON INTEGRALS 127


 CAPPA:IS1  4;IS2  4;IS3  4; K PTS MONK NET  18; SYMMOPS:K SPACE  16;G SPACE  16

 *******************************************************************************
 *                                                                             *
 *                              T O P O N D  2 0 2 1                           *
 *                                                                             *
 *           AN ELECTRON DENSITY TOPOLOGICAL ANALYSIS PROGRAM FOR              *
 *                 SYSTEMS PERIODIC IN N (N=0-3) DIMENSIONS                    *
 *                                                                             *
 *               USER MANUAL BY CARLO GATTI AND SILVIA CASASSA                 *
 *                                                                             *
 *            CNR-ISTM, ISTITUTO DI SCIENZE E TECNOLOGIE MOLECOLARI            *
 *                   VIA GOLGI 19  - I-20133 MILANO - ITALIA                   *
 *                     E-MAIL: c.gatti@istm.cnr.it                             *
 *                                                                             *
 *******************************************************************************

  TOPOND PARAMETER 

  LIM016 [INF24]        =       1000
  LIM015 [INF20]        =         36
  LIM035 [LIM016*INF5]  =     524000
  NTOMAX [LIM016*INF5]  =     524000
  INF79  [INF79]        =       6999
  MAXGSTAR [INF2*INF5]  =        384

 *******************************************************************************
 *******************************************************************************
 *                                                                             *
 *               TOPOND GENERALISATION TO F AND G ATOMIC ORBITALS              *
 *                                                                             *
 *                     BY ALESSANDRO COSSARD, JACQUES DESMARAIS                *
 *                            AND ALESSANDRO ERBA                              *
 *                                                                             *
 *      PLEASE CITE: A. Cossard, J. K. Desmarais, S.Casassa, C. Gatti and      *
 *            A. Erba, J. Phys. Chem. Lett., 12, 1862-1868 (2021)              *
 *                                                                             *
 *******************************************************************************

CRYSTAL INFORMATION ON THE REFERENCE SYSTEM:

 DIRECT LATTICE VECTOR COMPONENTS (BOHR)
         9.08958    0.00000    0.00000
         0.00000    9.08958    0.00000
         0.00000    0.00000    7.04868

 LATTICE PARAMETERS  (BOHR AND DEGREES) - PRIMITIVE CELL
        A           B           C        ALPHA        BETA       GAMMA       VOLUME
     9.08958     9.08958     7.04868    90.00000    90.00000    90.00000   582.36544
 *******************************************************************************
 N. OF ATOMS PER CELL        6  COULOMB OVERLAP TOL         (T1) 10** -6
 NUMBER OF SHELLS           36  COULOMB PENETRATION TOL     (T2) 10** -6
 NUMBER OF AO               84  EXCHANGE OVERLAP TOL        (T3) 10** -6
 N. OF ELECTRONS PER CELL    44 EXCHANGE PSEUDO OVP (F(G))  (T4) 10** -6
 CORE ELECTRONS PER CELL    12  EXCHANGE PSEUDO OVP (P(G))  (T5) 10**-12
 N. OF SYMMETRY OPERATORS   16  POLE ORDER IN MONO ZONE                4
 *******************************************************************************
  ATOM  SHEL    X(AU)     Y(AU)     Z(AU)
 *******************************************************************************
    6 C    6     4.545     4.545     0.000
    6 C    6     0.000     0.000     3.524
    8 O    6     1.559     1.559     3.524
    8 O    6    -1.559    -1.559     3.524
    8 O    6    -2.986     2.986     0.000
    8 O    6     2.986    -2.986     0.000
 *******************************************************************************
 DE(K)                  0.000E+00  CONVERGENCE ON EIGENVALUES   10**-20
 WEIGHT OF F(I) IN F(I+1)     30%  CONVERGENCE ON ENERGY        10**- 6
 TOTAL ENERGY     -3.76695695E+02  FERMI ENERGY              -3.716E-01
 KIN. ENERGY       3.73723494E+02  VIR. COEFF.           1.04664322E+00
 SHRINK. FACT.(MONKH.)    4  4  4  STARS FOR FOURIER EXP. OF E(K)     1
 SHRINKING FACTOR (GILAT NET)   4  NUMBER OF K POINTS IN THE IBZ     18
 CELL VOLUME (A.U.)         582.365N. OF SCF CYCLES                   7
 ENERGY LEVEL SHIFTING    0.00000
 *******************************************************************************

 NEIGHBORS OF THE NON-EQUIVALENT ATOMS

 N = NUMBER OF NEIGHBORS AT DISTANCE R
    ATOM  N     R/ANG      R/AU   NEIGHBORS (ATOM LABELS AND CELL INDICES)

   1 C    2     1.1666     2.2046   5 O    1 0 0   6 O    0 1 0
   1 C    4     2.9106     5.5002   3 O    0 0 0   3 O    0 0-1   4 O    1 1 0
                                    4 O    1 1-1
   1 C    2     3.7300     7.0487   1 C    0 0-1   1 C    0 0 1
   1 C    8     3.8790     7.3302   2 C    0 0 0   2 C    0 0-1   2 C    1 0 0
                                    2 C    0 1 0   2 C    1 0-1   2 C    0 1-1
                                    2 C    1 1 0   2 C    1 1-1
   1 C    4     3.9082     7.3854   5 O    1 0-1   5 O    1 0 1   6 O    0 1-1
                                    6 O    0 1 1
   1 C    8     4.0506     7.6545   3 O    1 0 0   3 O    0 1 0   3 O    1 0-1
                                    3 O    0 1-1   4 O    0 1 0   4 O    1 0 0
                                    4 O    0 1-1   4 O    1 0-1
   1 C    4     4.0696     7.6904   5 O    0 0 0   5 O    1 1 0   6 O    1 1 0
                                    6 O    0 0 0
   1 C    4     4.8100     9.0896   1 C   -1 0 0   1 C    1 0 0   1 C    0-1 0
                                    1 C    0 1 0
   1 C    4     4.9339     9.3236   3 O    1 1 0   3 O    1 1-1   4 O    0 0 0
                                    4 O    0 0-1
   1 C    8     5.5203    10.4319   5 O    0 0 1   5 O    0 0-1   5 O    1 1 1
                                    5 O    1 1-1   6 O    1 1 1   6 O    1 1-1
                                    6 O    0 0 1   6 O    0 0-1
   1 C    2     5.6358    10.6500   5 O    0 1 0   6 O    1 0 0
   1 C    4     5.6950    10.7620   5 O    2 0 0   5 O    1-1 0   6 O   -1 1 0
                                    6 O    0 2 0
   1 C    4     6.0247    11.3851   3 O    0 0 1   3 O    0 0-2   4 O    1 1 1
                                    4 O    1 1-2
   1 C    8     6.0868    11.5024   1 C   -1 0-1   1 C    1 0 1   1 C   -1 0 1
                                    1 C    1 0-1   1 C    0-1-1   1 C    0 1 1
                                    1 C    0-1 1   1 C    0 1-1
   1 C    8     6.5477    12.3733   2 C    0 0 1   2 C    1 0 1   2 C    0 1 1
                                    2 C    0 0-2   2 C    1 1 1   2 C    1 0-2
                                    2 C    0 1-2   2 C    1 1-2
   1 C    8     6.6508    12.5682   3 O    1 0 1   3 O    0 1 1   3 O    1 0-2
                                    3 O    0 1-2   4 O    0 1 1   4 O    1 0 1
                                    4 O    0 1-2   4 O    1 0-2
   1 C    4     6.7583    12.7713   5 O    0 1 1   5 O    0 1-1   6 O    1 0 1
                                    6 O    1 0-1
   1 C    4     6.8024    12.8546   1 C   -1-1 0   1 C    1 1 0   1 C   -1 1 0
                                    1 C    1-1 0
   1 C    8     6.8078    12.8648   5 O    2 0-1   5 O    2 0 1   5 O    1-1-1
                                    5 O    1-1 1   6 O   -1 1-1   6 O   -1 1 1
                                    6 O    0 2-1   6 O    0 2 1
   1 C    8     6.8416    12.9288   3 O   -1 0 0   3 O    0-1 0   3 O   -1 0-1
                                    3 O    0-1-1   4 O    2 1 0   4 O    1 2 0
                                    4 O    2 1-1   4 O    1 2-1

   3 O    1     1.1666     2.2046   2 C    0 0 0
   3 O    1     2.3332     4.4092   4 O    0 0 0
   3 O    2     2.9106     5.5002   1 C    0 0 0   1 C    0 0 1
   3 O    8     3.1357     5.9256   5 O    0 0 0   5 O    0 0 1   5 O    1 0 0
                                    5 O    1 0 1   6 O    0 0 1   6 O    0 0 0
                                    6 O    0 1 1   6 O    0 1 0
   3 O    2     3.5649     6.7367   4 O    1 0 0   4 O    0 1 0
   3 O    2     3.7300     7.0487   3 O    0 0-1   3 O    0 0 1
   3 O    2     3.9082     7.3854   2 C    0 0-1   2 C    0 0 1
   3 O    4     4.0506     7.6545   1 C   -1 0 0   1 C    0-1 0   1 C   -1 0 1
                                    1 C    0-1 1
   3 O    2     4.0696     7.6904   2 C    1 0 0   2 C    0 1 0
   3 O    2     4.3996     8.3141   4 O    0 0 1   4 O    0 0-1
   3 O    1     4.4691     8.4455   4 O    1 1 0
   3 O    4     4.8100     9.0896   3 O   -1 0 0   3 O    1 0 0   3 O    0-1 0
                                    3 O    0 1 0
   3 O    2     4.9339     9.3236   1 C   -1-1 0   1 C   -1-1 1
   3 O    8     5.0699     9.5807   5 O    0-1 0   5 O    0-1 1   5 O    1-1 0
                                    5 O    1-1 1   6 O   -1 0 1   6 O   -1 0 0
                                    6 O   -1 1 1   6 O   -1 1 0
   3 O    4     5.1596     9.7502   4 O    1 0 1   4 O    1 0-1   4 O    0 1 1
                                    4 O    0 1-1
   3 O    4     5.5203    10.4319   2 C    1 0 1   2 C    1 0-1   2 C    0 1 1
                                    2 C    0 1-1
   3 O    1     5.6358    10.6500   2 C    1 1 0
   3 O    2     5.6950    10.7620   2 C   -1 0 0   2 C    0-1 0
   3 O    2     5.8212    11.0004   4 O    1 1 1   4 O    1 1-1
   3 O    2     6.0247    11.3851   1 C    0 0-1   1 C    0 0 2

 CLUSTERS AROUND EACH OF THE NON-EQUIVALENT ATOMS



 ************* T O P O L O G I C A L  A N A L I S Y S  O F  R H O *************


 COMPUTATIONAL CONDITIONS :
                           IAUTO                                     :     4

 PROFILE ALONG LINE: NON-EQUIV. ATOM      1 C -----     6 O (     0     1     0)

 BOND L. PERC. STEP  2.0%

       COORDINATES(AU)           DISTANCE(AU)     RHO(AU)     DEL2RHO(AU)   L3(AU)   ELLIPTICITY 

   4.5448    4.5448    0.0000       0.0000        112.1437   -0.258E+06   -0.861E+05   0.0000
   4.5136    4.5760    0.0000       0.0233         73.0450   -0.239E+05    0.149E+05   0.0000
   4.4824    4.6071    0.0000       0.0467         43.7939   -0.565E+04    0.619E+04   0.0000
   4.4513    4.6383    0.0000       0.0700         26.1755   -0.884E+03    0.363E+04   0.0000
   4.4201    4.6695    0.0000       0.0933         15.8891   -0.446E+02    0.201E+04   0.0000
   4.3889    4.7007    0.0000       0.1167          9.6330    0.301E+03    0.129E+04   0.0001
   4.3577    4.7319    0.0000       0.1400          5.9134    0.277E+03    0.765E+03   0.0001
   4.3265    4.7630    0.0000       0.1633          3.7144    0.186E+03    0.437E+03   0.0001
   4.2954    4.7942    0.0000       0.1867          2.3897    0.125E+03    0.259E+03   0.0002
   4.2642    4.8254    0.0000       0.2100          1.5820    0.866E+02    0.161E+03   0.0003
   4.2330    4.8566    0.0000       0.2333          1.0928    0.592E+02    0.100E+03   0.0004
   4.2018    4.8877    0.0000       0.2567          0.8022    0.384E+02    0.614E+02   0.0006
   4.1707    4.9189    0.0000       0.2800          0.6331    0.235E+02    0.366E+02   0.0009
   4.1395    4.9501    0.0000       0.3033          0.5369    0.136E+02    0.215E+02   0.0012
   4.1083    4.9813    0.0000       0.3267          0.4834    0.753E+01    0.126E+02   0.0015
   4.0771    5.0125    0.0000       0.3500          0.4551    0.384E+01    0.737E+01   0.0017
   4.0460    5.0436    0.0000       0.3733          0.4413    0.164E+01    0.436E+01   0.0018
   4.0148    5.0748    0.0000       0.3966          0.4363    0.320E+00    0.261E+01   0.0018
   3.9836    5.1060    0.0000       0.4200          0.4364   -0.464E+00    0.161E+01   0.0017
   3.9524    5.1372    0.0000       0.4433          0.4398   -0.913E+00    0.105E+01   0.0015
   3.9212    5.1683    0.0000       0.4666          0.4452   -0.114E+01    0.783E+00   0.0013
   3.8901    5.1995    0.0000       0.4900          0.4522   -0.123E+01    0.693E+00   0.0012
   3.8589    5.2307    0.0000       0.5133          0.4606   -0.122E+01    0.719E+00   0.0011
   3.8277    5.2619    0.0000       0.5366          0.4703   -0.115E+01    0.819E+00   0.0012
   3.7965    5.2931    0.0000       0.5600          0.4817   -0.105E+01    0.962E+00   0.0012
   3.7654    5.3242    0.0000       0.5833          0.4949   -0.943E+00    0.113E+01   0.0014
   3.7342    5.3554    0.0000       0.6066          0.5104   -0.843E+00    0.131E+01   0.0016
   3.7030    5.3866    0.0000       0.6300          0.5284   -0.770E+00    0.147E+01   0.0020
   3.6718    5.4178    0.0000       0.6533          0.5492   -0.745E+00    0.161E+01   0.0024
   3.6406    5.4489    0.0000       0.6766          0.5731   -0.791E+00    0.170E+01   0.0029
   3.6095    5.4801    0.0000       0.7000          0.6004   -0.929E+00    0.170E+01   0.0035
   3.5783    5.5113    0.0000       0.7233          0.6309   -0.117E+01    0.162E+01   0.0043
   3.5471    5.5425    0.0000       0.7466          0.6646   -0.151E+01    0.143E+01   0.0053
   3.5159    5.5736    0.0000       0.7700          0.7010   -0.186E+01    0.120E+01   0.0066
   3.4848    5.6048    0.0000       0.7933          0.7398   -0.207E+01    0.110E+01   0.0084
   3.4536    5.6360    0.0000       0.8166          0.7808   -0.183E+01    0.145E+01   0.0105
   3.4224    5.6672    0.0000       0.8400          0.8248   -0.604E+00    0.290E+01   0.0128
   3.3912    5.6984    0.0000       0.8633          0.8748    0.253E+01    0.665E+01   0.0141
   3.3600    5.7295    0.0000       0.8866          0.9384    0.927E+01    0.151E+02   0.0129
   3.3289    5.7607    0.0000       0.9100          1.0329    0.231E+02    0.331E+02   0.0096
   3.2977    5.7919    0.0000       0.9333          1.1949    0.510E+02    0.715E+02   0.0061
   3.2665    5.8231    0.0000       0.9566          1.5024    0.105E+03    0.151E+03   0.0036
   3.2353    5.8542    0.0000       0.9800          2.1161    0.201E+03    0.308E+03   0.0020
   3.2042    5.8854    0.0000       1.0033          3.3491    0.350E+03    0.596E+03   0.0012
   3.1730    5.9166    0.0000       1.0266          5.7795    0.569E+03    0.113E+04   0.0007
   3.1418    5.9478    0.0000       1.0500         10.5131    0.967E+03    0.230E+04   0.0004
   3.1106    5.9790    0.0000       1.0733         19.9515    0.145E+04    0.485E+04   0.0002
   3.0795    6.0101    0.0000       1.0966         39.0532   -0.979E+02    0.895E+04   0.0001
   3.0483    6.0413    0.0000       1.1199         76.5753   -0.662E+04    0.204E+05   0.0000
   3.0171    6.0725    0.0000       1.1433        153.2710   -0.755E+05    0.306E+05   0.0000
   2.9859    6.1037    0.0000       1.1666        279.0427   -0.116E+07   -0.388E+06   0.0000
 TTTTTTTTTTTTTTTTTTTTTTTTTTTTTT TRHO        TELAPSE        0.33 TCPU        0.24
 TTTTTTTTTTTTTTTTTTTTTTTTTTTTTT END         TELAPSE        0.33 TCPU        0.24
 EEEEEEEEEE TERMINATION  DATE 21 01 2023 TIME 14:58:45.4
